 Entering Gaussian System, Link 0=g16
 Initial command:
 /home/wangzhe/g16/l1.exe "/home/wangzhe/g16/Scratch/Gau-219036.inp" -scrdir="/home/wangzhe/g16/Scratch/"
 Default is to use a total of  16 processors:
                               16 via shared-memory
                                1 via Linda
 Entering Link 1 = /home/wangzhe/g16/l1.exe PID=    219042.
  
 Copyright (c) 1988-2017, Gaussian, Inc.  All Rights Reserved.
  
 This is part of the Gaussian(R) 16 program.  It is based on
 the Gaussian(R) 09 system (copyright 2009, Gaussian, Inc.),
 the Gaussian(R) 03 system (copyright 2003, Gaussian, Inc.),
 the Gaussian(R) 98 system (copyright 1998, Gaussian, Inc.),
 the Gaussian(R) 94 system (copyright 1995, Gaussian, Inc.),
 the Gaussian 92(TM) system (copyright 1992, Gaussian, Inc.),
 the Gaussian 90(TM) system (copyright 1990, Gaussian, Inc.),
 the Gaussian 88(TM) system (copyright 1988, Gaussian, Inc.),
 the Gaussian 86(TM) system (copyright 1986, Carnegie Mellon
 University), and the Gaussian 82(TM) system (copyright 1983,
 Carnegie Mellon University). Gaussian is a federally registered
 trademark of Gaussian, Inc.
  
 This software contains proprietary and confidential information,
 including trade secrets, belonging to Gaussian, Inc.
  
 This software is provided under written license and may be
 used, copied, transmitted, or stored only in accord with that
 written license.
  
 The following legend is applicable only to US Government
 contracts under FAR:
  
                    RESTRICTED RIGHTS LEGEND
  
 Use, reproduction and disclosure by the US Government is
 subject to restrictions as set forth in subparagraphs (a)
 and (c) of the Commercial Computer Software - Restricted
 Rights clause in FAR 52.227-19.
  
 Gaussian, Inc.
 340 Quinnipiac St., Bldg. 40, Wallingford CT 06492
  
  
 ---------------------------------------------------------------
 Warning -- This program may not be used in any manner that
 competes with the business of Gaussian, Inc. or will provide
 assistance to any competitor of Gaussian, Inc.  The licensee
 of this program is prohibited from giving any competitor of
 Gaussian, Inc. access to this program.  By using this program,
 the user acknowledges that Gaussian, Inc. is engaged in the
 business of creating and licensing software in the field of
 computational chemistry and represents and warrants to the
 licensee that it is not a competitor of Gaussian, Inc. and that
 it will not use this program in any manner prohibited above.
 ---------------------------------------------------------------
  

 Cite this work as:
 Gaussian 16, Revision B.01,
 M. J. Frisch, G. W. Trucks, H. B. Schlegel, G. E. Scuseria, 
 M. A. Robb, J. R. Cheeseman, G. Scalmani, V. Barone, 
 G. A. Petersson, H. Nakatsuji, X. Li, M. Caricato, A. V. Marenich, 
 J. Bloino, B. G. Janesko, R. Gomperts, B. Mennucci, H. P. Hratchian, 
 J. V. Ortiz, A. F. Izmaylov, J. L. Sonnenberg, D. Williams-Young, 
 F. Ding, F. Lipparini, F. Egidi, J. Goings, B. Peng, A. Petrone, 
 T. Henderson, D. Ranasinghe, V. G. Zakrzewski, J. Gao, N. Rega, 
 G. Zheng, W. Liang, M. Hada, M. Ehara, K. Toyota, R. Fukuda, 
 J. Hasegawa, M. Ishida, T. Nakajima, Y. Honda, O. Kitao, H. Nakai, 
 T. Vreven, K. Throssell, J. A. Montgomery, Jr., J. E. Peralta, 
 F. Ogliaro, M. J. Bearpark, J. J. Heyd, E. N. Brothers, K. N. Kudin, 
 V. N. Staroverov, T. A. Keith, R. Kobayashi, J. Normand, 
 K. Raghavachari, A. P. Rendell, J. C. Burant, S. S. Iyengar, 
 J. Tomasi, M. Cossi, J. M. Millam, M. Klene, C. Adamo, R. Cammi, 
 J. W. Ochterski, R. L. Martin, K. Morokuma, O. Farkas, 
 J. B. Foresman, and D. J. Fox, Gaussian, Inc., Wallingford CT, 2016.
 
 ******************************************
 Gaussian 16:  ES64L-G16RevB.01 20-Dec-2017
                20-Mar-2023 
 ******************************************
 %nprocshared=8
 Will use up to    8 processors via shared memory.
 %mem=10gb
 %chk=chem_wu_8MC_triplet_2D_NICS_XZ.chk
 --------------------------------------------
 #p nmr=giao b3lyp/6-31g(d) geom=connectivity
 --------------------------------------------
 1/38=1,57=2,172=1/1;
 2/12=2,17=6,18=5,40=1/2;
 3/5=1,6=6,7=1,11=2,25=1,30=1,74=-5/1,2,3,8;
 4//1;
 5/5=2,38=5/2;
 8/6=1,10=90,11=11/1;
 10/13=100,45=16/2;
 6/7=2,8=2,9=2,10=2,28=1/1;
 99/9=1/99;
 Leave Link    1 at Mon Mar 20 12:45:02 2023, MaxMem=  1342177280 cpu:               0.5 elap:               0.0
 (Enter /home/wangzhe/g16/l101.exe)
 --------------------------
 File Created by py.Aroma 3
 --------------------------
 Symbolic Z-matrix:
 Charge =  0 Multiplicity = 1
 C                     1.20975  -5.94877  -0.27858 
 C                     1.19059  -4.73544   0.54044 
 C                     0.       -4.17461   0.98454 
 C                    -1.19059  -4.73544   0.54044 
 C                    -1.20975  -5.94877  -0.27858 
 C                     0.       -6.57202  -0.6423 
 C                    -2.54832  -6.15194  -0.70716 
 C                     2.54832  -6.15194  -0.70716 
 C                     2.50826  -4.1945    0.54827 
 C                    -2.50826  -4.1945    0.54827 
 C                     3.35052  -5.06144  -0.26551 
 C                     4.64416  -4.64416  -0.63269 
 C                     5.06144  -3.35052  -0.2655 
 C                     4.19451  -2.50826   0.54827 
 C                     2.94786  -2.94786   0.97496 
 C                    -2.94786  -2.94786   0.97496 
 C                    -4.19451  -2.50826   0.54827 
 C                    -5.06144  -3.35052  -0.2655 
 C                    -4.64416  -4.64416  -0.63269 
 C                    -3.35052  -5.06144  -0.26551 
 C                     5.94877   1.20975  -0.27858 
 C                     4.73544   1.19059   0.54044 
 C                     4.17461   0.        0.98454 
 C                     4.73544  -1.19059   0.54044 
 C                     5.94877  -1.20975  -0.27858 
 C                     6.57202   0.       -0.6423 
 C                     6.15194  -2.54831  -0.70716 
 C                     6.15194   2.54831  -0.70716 
 C                    -1.20975   5.94877  -0.27858 
 C                    -1.19059   4.73544   0.54044 
 C                     0.        4.17461   0.98454 
 C                     1.19059   4.73544   0.54044 
 C                     1.20975   5.94877  -0.27858 
 C                     0.        6.57202  -0.6423 
 C                     2.54832   6.15194  -0.70716 
 C                    -2.54832   6.15194  -0.70716 
 C                    -2.50826   4.1945    0.54827 
 C                     2.50826   4.1945    0.54827 
 C                    -3.35052   5.06144  -0.26551 
 C                    -4.64416   4.64416  -0.63269 
 C                    -5.06144   3.35052  -0.2655 
 C                    -4.19451   2.50826   0.54827 
 C                    -2.94786   2.94786   0.97496 
 C                     2.94786   2.94786   0.97496 
 C                     4.19451   2.50826   0.54827 
 C                     5.06144   3.35052  -0.2655 
 C                     4.64416   4.64416  -0.63269 
 C                     3.35052   5.06144  -0.26551 
 C                    -5.94877  -1.20975  -0.27858 
 C                    -4.73544  -1.19059   0.54044 
 C                    -4.17461   0.        0.98454 
 C                    -4.73544   1.19059   0.54044 
 C                    -5.94877   1.20975  -0.27858 
 C                    -6.57202   0.       -0.6423 
 C                    -6.15194   2.54831  -0.70716 
 C                    -6.15194  -2.54831  -0.70716 
 H                     0.       -3.25157   1.55777 
 H                     0.       -7.45306  -1.27909 
 H                     5.26524  -5.26524  -1.27376 
 H                     2.28981  -2.28981   1.53661 
 H                    -2.28981  -2.28981   1.53661 
 H                    -5.26524  -5.26524  -1.27376 
 H                     3.25157   0.        1.55777 
 H                     7.45307   0.       -1.27908 
 H                     0.        3.25157   1.55777 
 H                     0.        7.45306  -1.27909 
 H                    -5.26524   5.26524  -1.27376 
 H                    -2.28981   2.28981   1.53661 
 H                     2.28981   2.28981   1.53661 
 H                     5.26524   5.26524  -1.27376 
 H                    -3.25157   0.        1.55777 
 H                    -7.45307   0.       -1.27908 
 H                     2.88527   6.95788  -1.34906 
 H                    -6.95789   2.88527  -1.34905 
 H                    -6.95789  -2.88527  -1.34905 
 H                    -2.88527  -6.95788  -1.34906 
 H                     6.95789  -2.88527  -1.34905 
 H                     6.95789   2.88527  -1.34905 
 H                    -2.88527   6.95788  -1.34906 
 H                     2.88527  -6.95788  -1.34906 
 Bq                   -8.95      0.       -2.85 
 Bq                   -8.95      0.       -2.65 
 Bq                   -8.95      0.       -2.45 
 Bq                   -8.95      0.       -2.25 
 Bq                   -8.95      0.       -2.05 
 Bq                   -8.95      0.       -1.85 
 Bq                   -8.95      0.       -1.65 
 Bq                   -8.95      0.       -1.45 
 Bq                   -8.95      0.       -1.25 
 Bq                   -8.95      0.       -1.05 
 Bq                   -8.95      0.       -0.85 
 Bq                   -8.95      0.       -0.65 
 Bq                   -8.95      0.       -0.45 
 Bq                   -8.95      0.       -0.25 
 Bq                   -8.95      0.       -0.05 
 Bq                   -8.95      0.        0.15 
 Bq                   -8.95      0.        0.35 
 Bq                   -8.95      0.        0.55 
 Bq                   -8.95      0.        0.75 
 Bq                   -8.95      0.        0.95 
 Bq                   -8.95      0.        1.15 
 Bq                   -8.95      0.        1.35 
 Bq                   -8.95      0.        1.55 
 Bq                   -8.95      0.        1.75 
 Bq                   -8.95      0.        1.95 
 Bq                   -8.95      0.        2.15 
 Bq                   -8.95      0.        2.35 
 Bq                   -8.95      0.        2.55 
 Bq                   -8.95      0.        2.75 
 Bq                   -8.95      0.        2.95 
 Bq                   -8.95      0.        3.15 
 Bq                   -8.75      0.       -2.85 
 Bq                   -8.75      0.       -2.65 
 Bq                   -8.75      0.       -2.45 
 Bq                   -8.75      0.       -2.25 
 Bq                   -8.75      0.       -2.05 
 Bq                   -8.75      0.       -1.85 
 Bq                   -8.75      0.       -1.65 
 Bq                   -8.75      0.       -1.45 
 Bq                   -8.75      0.       -1.25 
 Bq                   -8.75      0.       -1.05 
 Bq                   -8.75      0.       -0.85 
 Bq                   -8.75      0.       -0.65 
 Bq                   -8.75      0.       -0.45 
 Bq                   -8.75      0.       -0.25 
 Bq                   -8.75      0.       -0.05 
 Bq                   -8.75      0.        0.15 
 Bq                   -8.75      0.        0.35 
 Bq                   -8.75      0.        0.55 
 Bq                   -8.75      0.        0.75 
 Bq                   -8.75      0.        0.95 
 Bq                   -8.75      0.        1.15 
 Bq                   -8.75      0.        1.35 
 Bq                   -8.75      0.        1.55 
 Bq                   -8.75      0.        1.75 
 Bq                   -8.75      0.        1.95 
 Bq                   -8.75      0.        2.15 
 Bq                   -8.75      0.        2.35 
 Bq                   -8.75      0.        2.55 
 Bq                   -8.75      0.        2.75 
 Bq                   -8.75      0.        2.95 
 Bq                   -8.75      0.        3.15 
 Bq                   -8.55      0.       -2.85 
 Bq                   -8.55      0.       -2.65 
 Bq                   -8.55      0.       -2.45 
 Bq                   -8.55      0.       -2.25 
 Bq                   -8.55      0.       -2.05 
 Bq                   -8.55      0.       -1.85 
 Bq                   -8.55      0.       -1.65 
 Bq                   -8.55      0.       -1.45 
 Bq                   -8.55      0.       -1.25 
 Bq                   -8.55      0.       -1.05 
 Bq                   -8.55      0.       -0.85 
 Bq                   -8.55      0.       -0.65 
 Bq                   -8.55      0.       -0.45 
 Bq                   -8.55      0.       -0.25 
 Bq                   -8.55      0.       -0.05 
 Bq                   -8.55      0.        0.15 
 Bq                   -8.55      0.        0.35 
 Bq                   -8.55      0.        0.55 
 Bq                   -8.55      0.        0.75 
 Bq                   -8.55      0.        0.95 
 Bq                   -8.55      0.        1.15 
 Bq                   -8.55      0.        1.35 
 Bq                   -8.55      0.        1.55 
 Bq                   -8.55      0.        1.75 
 Bq                   -8.55      0.        1.95 
 Bq                   -8.55      0.        2.15 
 Bq                   -8.55      0.        2.35 
 Bq                   -8.55      0.        2.55 
 Bq                   -8.55      0.        2.75 
 Bq                   -8.55      0.        2.95 
 Bq                   -8.55      0.        3.15 
 Bq                   -8.35      0.       -2.85 
 Bq                   -8.35      0.       -2.65 
 Bq                   -8.35      0.       -2.45 
 Bq                   -8.35      0.       -2.25 
 Bq                   -8.35      0.       -2.05 
 Bq                   -8.35      0.       -1.85 
 Bq                   -8.35      0.       -1.65 
 Bq                   -8.35      0.       -1.45 
 Bq                   -8.35      0.       -1.25 
 Bq                   -8.35      0.       -1.05 
 Bq                   -8.35      0.       -0.85 
 Bq                   -8.35      0.       -0.65 
 Bq                   -8.35      0.       -0.45 
 Bq                   -8.35      0.       -0.25 
 Bq                   -8.35      0.       -0.05 
 Bq                   -8.35      0.        0.15 
 Bq                   -8.35      0.        0.35 
 Bq                   -8.35      0.        0.55 
 Bq                   -8.35      0.        0.75 
 Bq                   -8.35      0.        0.95 
 Bq                   -8.35      0.        1.15 
 Bq                   -8.35      0.        1.35 
 Bq                   -8.35      0.        1.55 
 Bq                   -8.35      0.        1.75 
 Bq                   -8.35      0.        1.95 
 Bq                   -8.35      0.        2.15 
 Bq                   -8.35      0.        2.35 
 Bq                   -8.35      0.        2.55 
 Bq                   -8.35      0.        2.75 
 Bq                   -8.35      0.        2.95 
 Bq                   -8.35      0.        3.15 
 Bq                   -8.15      0.       -2.85 
 Bq                   -8.15      0.       -2.65 
 Bq                   -8.15      0.       -2.45 
 Bq                   -8.15      0.       -2.25 
 Bq                   -8.15      0.       -2.05 
 Bq                   -8.15      0.       -1.85 
 Bq                   -8.15      0.       -1.65 
 Bq                   -8.15      0.       -1.45 
 Bq                   -8.15      0.       -1.25 
 Bq                   -8.15      0.       -1.05 
 Bq                   -8.15      0.       -0.85 
 Bq                   -8.15      0.       -0.65 
 Bq                   -8.15      0.       -0.45 
 Bq                   -8.15      0.       -0.25 
 Bq                   -8.15      0.       -0.05 
 Bq                   -8.15      0.        0.15 
 Bq                   -8.15      0.        0.35 
 Bq                   -8.15      0.        0.55 
 Bq                   -8.15      0.        0.75 
 Bq                   -8.15      0.        0.95 
 Bq                   -8.15      0.        1.15 
 Bq                   -8.15      0.        1.35 
 Bq                   -8.15      0.        1.55 
 Bq                   -8.15      0.        1.75 
 Bq                   -8.15      0.        1.95 
 Bq                   -8.15      0.        2.15 
 Bq                   -8.15      0.        2.35 
 Bq                   -8.15      0.        2.55 
 Bq                   -8.15      0.        2.75 
 Bq                   -8.15      0.        2.95 
 Bq                   -8.15      0.        3.15 
 Bq                   -7.95      0.       -2.85 
 Bq                   -7.95      0.       -2.65 
 Bq                   -7.95      0.       -2.45 
 Bq                   -7.95      0.       -2.25 
 Bq                   -7.95      0.       -2.05 
 Bq                   -7.95      0.       -1.85 
 Bq                   -7.95      0.       -1.65 
 Bq                   -7.95      0.       -1.45 
 Bq                   -7.95      0.       -1.25 
 Bq                   -7.95      0.       -1.05 
 Bq                   -7.95      0.       -0.85 
 Bq                   -7.95      0.       -0.65 
 Bq                   -7.95      0.       -0.45 
 Bq                   -7.95      0.       -0.25 
 Bq                   -7.95      0.       -0.05 
 Bq                   -7.95      0.        0.15 
 Bq                   -7.95      0.        0.35 
 Bq                   -7.95      0.        0.55 
 Bq                   -7.95      0.        0.75 
 Bq                   -7.95      0.        0.95 
 Bq                   -7.95      0.        1.15 
 Bq                   -7.95      0.        1.35 
 Bq                   -7.95      0.        1.55 
 Bq                   -7.95      0.        1.75 
 Bq                   -7.95      0.        1.95 
 Bq                   -7.95      0.        2.15 
 Bq                   -7.95      0.        2.35 
 Bq                   -7.95      0.        2.55 
 Bq                   -7.95      0.        2.75 
 Bq                   -7.95      0.        2.95 
 Bq                   -7.95      0.        3.15 
 Bq                   -7.75      0.       -2.85 
 Bq                   -7.75      0.       -2.65 
 Bq                   -7.75      0.       -2.45 
 Bq                   -7.75      0.       -2.25 
 Bq                   -7.75      0.       -2.05 
 Bq                   -7.75      0.       -1.85 
 Bq                   -7.75      0.       -1.65 
 Bq                   -7.75      0.       -1.45 
 Bq                   -7.75      0.       -1.25 
 Bq                   -7.75      0.       -1.05 
 Bq                   -7.75      0.       -0.85 
 Bq                   -7.75      0.       -0.65 
 Bq                   -7.75      0.       -0.45 
 Bq                   -7.75      0.       -0.25 
 Bq                   -7.75      0.       -0.05 
 Bq                   -7.75      0.        0.15 
 Bq                   -7.75      0.        0.35 
 Bq                   -7.75      0.        0.55 
 Bq                   -7.75      0.        0.75 
 Bq                   -7.75      0.        0.95 
 Bq                   -7.75      0.        1.15 
 Bq                   -7.75      0.        1.35 
 Bq                   -7.75      0.        1.55 
 Bq                   -7.75      0.        1.75 
 Bq                   -7.75      0.        1.95 
 Bq                   -7.75      0.        2.15 
 Bq                   -7.75      0.        2.35 
 Bq                   -7.75      0.        2.55 
 Bq                   -7.75      0.        2.75 
 Bq                   -7.75      0.        2.95 
 Bq                   -7.75      0.        3.15 
 Bq                   -7.55      0.       -2.85 
 Bq                   -7.55      0.       -2.65 
 Bq                   -7.55      0.       -2.45 
 Bq                   -7.55      0.       -2.25 
 Bq                   -7.55      0.       -2.05 
 Bq                   -7.55      0.       -1.85 
 Bq                   -7.55      0.       -1.65 
 Bq                   -7.55      0.       -1.45 
 Bq                   -7.55      0.       -1.25 
 Bq                   -7.55      0.       -1.05 
 Bq                   -7.55      0.       -0.85 
 Bq                   -7.55      0.       -0.65 
 Bq                   -7.55      0.       -0.45 
 Bq                   -7.55      0.       -0.25 
 Bq                   -7.55      0.       -0.05 
 Bq                   -7.55      0.        0.15 
 Bq                   -7.55      0.        0.35 
 Bq                   -7.55      0.        0.55 
 Bq                   -7.55      0.        0.75 
 Bq                   -7.55      0.        0.95 
 Bq                   -7.55      0.        1.15 
 Bq                   -7.55      0.        1.35 
 Bq                   -7.55      0.        1.55 
 Bq                   -7.55      0.        1.75 
 Bq                   -7.55      0.        1.95 
 Bq                   -7.55      0.        2.15 
 Bq                   -7.55      0.        2.35 
 Bq                   -7.55      0.        2.55 
 Bq                   -7.55      0.        2.75 
 Bq                   -7.55      0.        2.95 
 Bq                   -7.55      0.        3.15 
 Bq                   -7.35      0.       -2.85 
 Bq                   -7.35      0.       -2.65 
 Bq                   -7.35      0.       -2.45 
 Bq                   -7.35      0.       -2.25 
 Bq                   -7.35      0.       -2.05 
 Bq                   -7.35      0.       -1.85 
 Bq                   -7.35      0.       -1.65 
 Bq                   -7.35      0.       -1.45 
 Bq                   -7.35      0.       -1.25 
 Bq                   -7.35      0.       -1.05 
 Bq                   -7.35      0.       -0.85 
 Bq                   -7.35      0.       -0.65 
 Bq                   -7.35      0.       -0.45 
 Bq                   -7.35      0.       -0.25 
 Bq                   -7.35      0.       -0.05 
 Bq                   -7.35      0.        0.15 
 Bq                   -7.35      0.        0.35 
 Bq                   -7.35      0.        0.55 
 Bq                   -7.35      0.        0.75 
 Bq                   -7.35      0.        0.95 
 Bq                   -7.35      0.        1.15 
 Bq                   -7.35      0.        1.35 
 Bq                   -7.35      0.        1.55 
 Bq                   -7.35      0.        1.75 
 Bq                   -7.35      0.        1.95 
 Bq                   -7.35      0.        2.15 
 Bq                   -7.35      0.        2.35 
 Bq                   -7.35      0.        2.55 
 Bq                   -7.35      0.        2.75 
 Bq                   -7.35      0.        2.95 
 Bq                   -7.35      0.        3.15 
 Bq                   -7.15      0.       -2.85 
 Bq                   -7.15      0.       -2.65 
 Bq                   -7.15      0.       -2.45 
 Bq                   -7.15      0.       -2.25 
 Bq                   -7.15      0.       -2.05 
 Bq                   -7.15      0.       -1.85 
 Bq                   -7.15      0.       -1.65 
 Bq                   -7.15      0.       -1.45 
 Bq                   -7.15      0.       -1.25 
 Bq                   -7.15      0.       -1.05 
 Bq                   -7.15      0.       -0.85 
 Bq                   -7.15      0.       -0.65 
 Bq                   -7.15      0.       -0.45 
 Bq                   -7.15      0.       -0.25 
 Bq                   -7.15      0.       -0.05 
 Bq                   -7.15      0.        0.15 
 Bq                   -7.15      0.        0.35 
 Bq                   -7.15      0.        0.55 
 Bq                   -7.15      0.        0.75 
 Bq                   -7.15      0.        0.95 
 Bq                   -7.15      0.        1.15 
 Bq                   -7.15      0.        1.35 
 Bq                   -7.15      0.        1.55 
 Bq                   -7.15      0.        1.75 
 Bq                   -7.15      0.        1.95 
 Bq                   -7.15      0.        2.15 
 Bq                   -7.15      0.        2.35 
 Bq                   -7.15      0.        2.55 
 Bq                   -7.15      0.        2.75 
 Bq                   -7.15      0.        2.95 
 Bq                   -7.15      0.        3.15 
 Bq                   -6.95      0.       -2.85 
 Bq                   -6.95      0.       -2.65 
 Bq                   -6.95      0.       -2.45 
 Bq                   -6.95      0.       -2.25 
 Bq                   -6.95      0.       -2.05 
 Bq                   -6.95      0.       -1.85 
 Bq                   -6.95      0.       -1.65 
 Bq                   -6.95      0.       -1.45 
 Bq                   -6.95      0.       -1.25 
 Bq                   -6.95      0.       -1.05 
 Bq                   -6.95      0.       -0.85 
 Bq                   -6.95      0.       -0.65 
 Bq                   -6.95      0.       -0.45 
 Bq                   -6.95      0.       -0.25 
 Bq                   -6.95      0.       -0.05 
 Bq                   -6.95      0.        0.15 
 Bq                   -6.95      0.        0.35 
 Bq                   -6.95      0.        0.55 
 Bq                   -6.95      0.        0.75 
 Bq                   -6.95      0.        0.95 
 Bq                   -6.95      0.        1.15 
 Bq                   -6.95      0.        1.35 
 Bq                   -6.95      0.        1.55 
 Bq                   -6.95      0.        1.75 
 Bq                   -6.95      0.        1.95 
 Bq                   -6.95      0.        2.15 
 Bq                   -6.95      0.        2.35 
 Bq                   -6.95      0.        2.55 
 Bq                   -6.95      0.        2.75 
 Bq                   -6.95      0.        2.95 
 Bq                   -6.95      0.        3.15 
 Bq                   -6.75      0.       -2.85 
 Bq                   -6.75      0.       -2.65 
 Bq                   -6.75      0.       -2.45 
 Bq                   -6.75      0.       -2.25 
 Bq                   -6.75      0.       -2.05 
 Bq                   -6.75      0.       -1.85 
 Bq                   -6.75      0.       -1.65 
 Bq                   -6.75      0.       -1.45 
 Bq                   -6.75      0.       -1.25 
 Bq                   -6.75      0.       -1.05 
 Bq                   -6.75      0.       -0.85 
 Bq                   -6.75      0.       -0.65 
 Bq                   -6.75      0.       -0.45 
 Bq                   -6.75      0.       -0.25 
 Bq                   -6.75      0.       -0.05 
 Bq                   -6.75      0.        0.15 
 Bq                   -6.75      0.        0.35 
 Bq                   -6.75      0.        0.55 
 Bq                   -6.75      0.        0.75 
 Bq                   -6.75      0.        0.95 
 Bq                   -6.75      0.        1.15 
 Bq                   -6.75      0.        1.35 
 Bq                   -6.75      0.        1.55 
 Bq                   -6.75      0.        1.75 
 Bq                   -6.75      0.        1.95 
 Bq                   -6.75      0.        2.15 
 Bq                   -6.75      0.        2.35 
 Bq                   -6.75      0.        2.55 
 Bq                   -6.75      0.        2.75 
 Bq                   -6.75      0.        2.95 
 Bq                   -6.75      0.        3.15 
 Bq                   -6.55      0.       -2.85 
 Bq                   -6.55      0.       -2.65 
 Bq                   -6.55      0.       -2.45 
 Bq                   -6.55      0.       -2.25 
 Bq                   -6.55      0.       -2.05 
 Bq                   -6.55      0.       -1.85 
 Bq                   -6.55      0.       -1.65 
 Bq                   -6.55      0.       -1.45 
 Bq                   -6.55      0.       -1.25 
 Bq                   -6.55      0.       -1.05 
 Bq                   -6.55      0.       -0.85 
 Bq                   -6.55      0.       -0.65 
 Bq                   -6.55      0.       -0.45 
 Bq                   -6.55      0.       -0.25 
 Bq                   -6.55      0.       -0.05 
 Bq                   -6.55      0.        0.15 
 Bq                   -6.55      0.        0.35 
 Bq                   -6.55      0.        0.55 
 Bq                   -6.55      0.        0.75 
 Bq                   -6.55      0.        0.95 
 Bq                   -6.55      0.        1.15 
 Bq                   -6.55      0.        1.35 
 Bq                   -6.55      0.        1.55 
 Bq                   -6.55      0.        1.75 
 Bq                   -6.55      0.        1.95 
 Bq                   -6.55      0.        2.15 
 Bq                   -6.55      0.        2.35 
 Bq                   -6.55      0.        2.55 
 Bq                   -6.55      0.        2.75 
 Bq                   -6.55      0.        2.95 
 Bq                   -6.55      0.        3.15 
 Bq                   -6.35      0.       -2.85 
 Bq                   -6.35      0.       -2.65 
 Bq                   -6.35      0.       -2.45 
 Bq                   -6.35      0.       -2.25 
 Bq                   -6.35      0.       -2.05 
 Bq                   -6.35      0.       -1.85 
 Bq                   -6.35      0.       -1.65 
 Bq                   -6.35      0.       -1.45 
 Bq                   -6.35      0.       -1.25 
 Bq                   -6.35      0.       -1.05 
 Bq                   -6.35      0.       -0.85 
 Bq                   -6.35      0.       -0.65 
 Bq                   -6.35      0.       -0.45 
 Bq                   -6.35      0.       -0.25 
 Bq                   -6.35      0.       -0.05 
 Bq                   -6.35      0.        0.15 
 Bq                   -6.35      0.        0.35 
 Bq                   -6.35      0.        0.55 
 Bq                   -6.35      0.        0.75 
 Bq                   -6.35      0.        0.95 
 Bq                   -6.35      0.        1.15 
 Bq                   -6.35      0.        1.35 
 Bq                   -6.35      0.        1.55 
 Bq                   -6.35      0.        1.75 
 Bq                   -6.35      0.        1.95 
 Bq                   -6.35      0.        2.15 
 Bq                   -6.35      0.        2.35 
 Bq                   -6.35      0.        2.55 
 Bq                   -6.35      0.        2.75 
 Bq                   -6.35      0.        2.95 
 Bq                   -6.35      0.        3.15 
 Bq                   -6.15      0.       -2.85 
 Bq                   -6.15      0.       -2.65 
 Bq                   -6.15      0.       -2.45 
 Bq                   -6.15      0.       -2.25 
 Bq                   -6.15      0.       -2.05 
 Bq                   -6.15      0.       -1.85 
 Bq                   -6.15      0.       -1.65 
 Bq                   -6.15      0.       -1.45 
 Bq                   -6.15      0.       -1.25 
 Bq                   -6.15      0.       -1.05 
 Bq                   -6.15      0.       -0.85 
 Bq                   -6.15      0.       -0.65 
 Bq                   -6.15      0.       -0.45 
 Bq                   -6.15      0.       -0.25 
 Bq                   -6.15      0.       -0.05 
 Bq                   -6.15      0.        0.15 
 Bq                   -6.15      0.        0.35 
 Bq                   -6.15      0.        0.55 
 Bq                   -6.15      0.        0.75 
 Bq                   -6.15      0.        0.95 
 Bq                   -6.15      0.        1.15 
 Bq                   -6.15      0.        1.35 
 Bq                   -6.15      0.        1.55 
 Bq                   -6.15      0.        1.75 
 Bq                   -6.15      0.        1.95 
 Bq                   -6.15      0.        2.15 
 Bq                   -6.15      0.        2.35 
 Bq                   -6.15      0.        2.55 
 Bq                   -6.15      0.        2.75 
 Bq                   -6.15      0.        2.95 
 Bq                   -6.15      0.        3.15 
 Bq                   -5.95      0.       -2.85 
 Bq                   -5.95      0.       -2.65 
 Bq                   -5.95      0.       -2.45 
 Bq                   -5.95      0.       -2.25 
 Bq                   -5.95      0.       -2.05 
 Bq                   -5.95      0.       -1.85 
 Bq                   -5.95      0.       -1.65 
 Bq                   -5.95      0.       -1.45 
 Bq                   -5.95      0.       -1.25 
 Bq                   -5.95      0.       -1.05 
 Bq                   -5.95      0.       -0.85 
 Bq                   -5.95      0.       -0.65 
 Bq                   -5.95      0.       -0.45 
 Bq                   -5.95      0.       -0.25 
 Bq                   -5.95      0.       -0.05 
 Bq                   -5.95      0.        0.15 
 Bq                   -5.95      0.        0.35 
 Bq                   -5.95      0.        0.55 
 Bq                   -5.95      0.        0.75 
 Bq                   -5.95      0.        0.95 
 Bq                   -5.95      0.        1.15 
 Bq                   -5.95      0.        1.35 
 Bq                   -5.95      0.        1.55 
 Bq                   -5.95      0.        1.75 
 Bq                   -5.95      0.        1.95 
 Bq                   -5.95      0.        2.15 
 Bq                   -5.95      0.        2.35 
 Bq                   -5.95      0.        2.55 
 Bq                   -5.95      0.        2.75 
 Bq                   -5.95      0.        2.95 
 Bq                   -5.95      0.        3.15 
 Bq                   -5.75      0.       -2.85 
 Bq                   -5.75      0.       -2.65 
 Bq                   -5.75      0.       -2.45 
 Bq                   -5.75      0.       -2.25 
 Bq                   -5.75      0.       -2.05 
 Bq                   -5.75      0.       -1.85 
 Bq                   -5.75      0.       -1.65 
 Bq                   -5.75      0.       -1.45 
 Bq                   -5.75      0.       -1.25 
 Bq                   -5.75      0.       -1.05 
 Bq                   -5.75      0.       -0.85 
 Bq                   -5.75      0.       -0.65 
 Bq                   -5.75      0.       -0.45 
 Bq                   -5.75      0.       -0.25 
 Bq                   -5.75      0.       -0.05 
 Bq                   -5.75      0.        0.15 
 Bq                   -5.75      0.        0.35 
 Bq                   -5.75      0.        0.55 
 Bq                   -5.75      0.        0.75 
 Bq                   -5.75      0.        0.95 
 Bq                   -5.75      0.        1.15 
 Bq                   -5.75      0.        1.35 
 Bq                   -5.75      0.        1.55 
 Bq                   -5.75      0.        1.75 
 Bq                   -5.75      0.        1.95 
 Bq                   -5.75      0.        2.15 
 Bq                   -5.75      0.        2.35 
 Bq                   -5.75      0.        2.55 
 Bq                   -5.75      0.        2.75 
 Bq                   -5.75      0.        2.95 
 Bq                   -5.75      0.        3.15 
 Bq                   -5.55      0.       -2.85 
 Bq                   -5.55      0.       -2.65 
 Bq                   -5.55      0.       -2.45 
 Bq                   -5.55      0.       -2.25 
 Bq                   -5.55      0.       -2.05 
 Bq                   -5.55      0.       -1.85 
 Bq                   -5.55      0.       -1.65 
 Bq                   -5.55      0.       -1.45 
 Bq                   -5.55      0.       -1.25 
 Bq                   -5.55      0.       -1.05 
 Bq                   -5.55      0.       -0.85 
 Bq                   -5.55      0.       -0.65 
 Bq                   -5.55      0.       -0.45 
 Bq                   -5.55      0.       -0.25 
 Bq                   -5.55      0.       -0.05 
 Bq                   -5.55      0.        0.15 
 Bq                   -5.55      0.        0.35 
 Bq                   -5.55      0.        0.55 
 Bq                   -5.55      0.        0.75 
 Bq                   -5.55      0.        0.95 
 Bq                   -5.55      0.        1.15 
 Bq                   -5.55      0.        1.35 
 Bq                   -5.55      0.        1.55 
 Bq                   -5.55      0.        1.75 
 Bq                   -5.55      0.        1.95 
 Bq                   -5.55      0.        2.15 
 Bq                   -5.55      0.        2.35 
 Bq                   -5.55      0.        2.55 
 Bq                   -5.55      0.        2.75 
 Bq                   -5.55      0.        2.95 
 Bq                   -5.55      0.        3.15 
 Bq                   -5.35      0.       -2.85 
 Bq                   -5.35      0.       -2.65 
 Bq                   -5.35      0.       -2.45 
 Bq                   -5.35      0.       -2.25 
 Bq                   -5.35      0.       -2.05 
 Bq                   -5.35      0.       -1.85 
 Bq                   -5.35      0.       -1.65 
 Bq                   -5.35      0.       -1.45 
 Bq                   -5.35      0.       -1.25 
 Bq                   -5.35      0.       -1.05 
 Bq                   -5.35      0.       -0.85 
 Bq                   -5.35      0.       -0.65 
 Bq                   -5.35      0.       -0.45 
 Bq                   -5.35      0.       -0.25 
 Bq                   -5.35      0.       -0.05 
 Bq                   -5.35      0.        0.15 
 Bq                   -5.35      0.        0.35 
 Bq                   -5.35      0.        0.55 
 Bq                   -5.35      0.        0.75 
 Bq                   -5.35      0.        0.95 
 Bq                   -5.35      0.        1.15 
 Bq                   -5.35      0.        1.35 
 Bq                   -5.35      0.        1.55 
 Bq                   -5.35      0.        1.75 
 Bq                   -5.35      0.        1.95 
 Bq                   -5.35      0.        2.15 
 Bq                   -5.35      0.        2.35 
 Bq                   -5.35      0.        2.55 
 Bq                   -5.35      0.        2.75 
 Bq                   -5.35      0.        2.95 
 Bq                   -5.35      0.        3.15 
 Bq                   -5.15      0.       -2.85 
 Bq                   -5.15      0.       -2.65 
 Bq                   -5.15      0.       -2.45 
 Bq                   -5.15      0.       -2.25 
 Bq                   -5.15      0.       -2.05 
 Bq                   -5.15      0.       -1.85 
 Bq                   -5.15      0.       -1.65 
 Bq                   -5.15      0.       -1.45 
 Bq                   -5.15      0.       -1.25 
 Bq                   -5.15      0.       -1.05 
 Bq                   -5.15      0.       -0.85 
 Bq                   -5.15      0.       -0.65 
 Bq                   -5.15      0.       -0.45 
 Bq                   -5.15      0.       -0.25 
 Bq                   -5.15      0.       -0.05 
 Bq                   -5.15      0.        0.15 
 Bq                   -5.15      0.        0.35 
 Bq                   -5.15      0.        0.55 
 Bq                   -5.15      0.        0.75 
 Bq                   -5.15      0.        0.95 
 Bq                   -5.15      0.        1.15 
 Bq                   -5.15      0.        1.35 
 Bq                   -5.15      0.        1.55 
 Bq                   -5.15      0.        1.75 
 Bq                   -5.15      0.        1.95 
 Bq                   -5.15      0.        2.15 
 Bq                   -5.15      0.        2.35 
 Bq                   -5.15      0.        2.55 
 Bq                   -5.15      0.        2.75 
 Bq                   -5.15      0.        2.95 
 Bq                   -5.15      0.        3.15 
 Bq                   -4.95      0.       -2.85 
 Bq                   -4.95      0.       -2.65 
 Bq                   -4.95      0.       -2.45 
 Bq                   -4.95      0.       -2.25 
 Bq                   -4.95      0.       -2.05 
 Bq                   -4.95      0.       -1.85 
 Bq                   -4.95      0.       -1.65 
 Bq                   -4.95      0.       -1.45 
 Bq                   -4.95      0.       -1.25 
 Bq                   -4.95      0.       -1.05 
 Bq                   -4.95      0.       -0.85 
 Bq                   -4.95      0.       -0.65 
 Bq                   -4.95      0.       -0.45 
 Bq                   -4.95      0.       -0.25 
 Bq                   -4.95      0.       -0.05 
 Bq                   -4.95      0.        0.15 
 Bq                   -4.95      0.        0.35 
 Bq                   -4.95      0.        0.55 
 Bq                   -4.95      0.        0.75 
 Bq                   -4.95      0.        0.95 
 Bq                   -4.95      0.        1.15 
 Bq                   -4.95      0.        1.35 
 Bq                   -4.95      0.        1.55 
 Bq                   -4.95      0.        1.75 
 Bq                   -4.95      0.        1.95 
 Bq                   -4.95      0.        2.15 
 Bq                   -4.95      0.        2.35 
 Bq                   -4.95      0.        2.55 
 Bq                   -4.95      0.        2.75 
 Bq                   -4.95      0.        2.95 
 Bq                   -4.95      0.        3.15 
 Bq                   -4.75      0.       -2.85 
 Bq                   -4.75      0.       -2.65 
 Bq                   -4.75      0.       -2.45 
 Bq                   -4.75      0.       -2.25 
 Bq                   -4.75      0.       -2.05 
 Bq                   -4.75      0.       -1.85 
 Bq                   -4.75      0.       -1.65 
 Bq                   -4.75      0.       -1.45 
 Bq                   -4.75      0.       -1.25 
 Bq                   -4.75      0.       -1.05 
 Bq                   -4.75      0.       -0.85 
 Bq                   -4.75      0.       -0.65 
 Bq                   -4.75      0.       -0.45 
 Bq                   -4.75      0.       -0.25 
 Bq                   -4.75      0.       -0.05 
 Bq                   -4.75      0.        0.15 
 Bq                   -4.75      0.        0.35 
 Bq                   -4.75      0.        0.55 
 Bq                   -4.75      0.        0.75 
 Bq                   -4.75      0.        0.95 
 Bq                   -4.75      0.        1.15 
 Bq                   -4.75      0.        1.35 
 Bq                   -4.75      0.        1.55 
 Bq                   -4.75      0.        1.75 
 Bq                   -4.75      0.        1.95 
 Bq                   -4.75      0.        2.15 
 Bq                   -4.75      0.        2.35 
 Bq                   -4.75      0.        2.55 
 Bq                   -4.75      0.        2.75 
 Bq                   -4.75      0.        2.95 
 Bq                   -4.75      0.        3.15 
 Bq                   -4.55      0.       -2.85 
 Bq                   -4.55      0.       -2.65 
 Bq                   -4.55      0.       -2.45 
 Bq                   -4.55      0.       -2.25 
 Bq                   -4.55      0.       -2.05 
 Bq                   -4.55      0.       -1.85 
 Bq                   -4.55      0.       -1.65 
 Bq                   -4.55      0.       -1.45 
 Bq                   -4.55      0.       -1.25 
 Bq                   -4.55      0.       -1.05 
 Bq                   -4.55      0.       -0.85 
 Bq                   -4.55      0.       -0.65 
 Bq                   -4.55      0.       -0.45 
 Bq                   -4.55      0.       -0.25 
 Bq                   -4.55      0.       -0.05 
 Bq                   -4.55      0.        0.15 
 Bq                   -4.55      0.        0.35 
 Bq                   -4.55      0.        0.55 
 Bq                   -4.55      0.        0.75 
 Bq                   -4.55      0.        0.95 
 Bq                   -4.55      0.        1.15 
 Bq                   -4.55      0.        1.35 
 Bq                   -4.55      0.        1.55 
 Bq                   -4.55      0.        1.75 
 Bq                   -4.55      0.        1.95 
 Bq                   -4.55      0.        2.15 
 Bq                   -4.55      0.        2.35 
 Bq                   -4.55      0.        2.55 
 Bq                   -4.55      0.        2.75 
 Bq                   -4.55      0.        2.95 
 Bq                   -4.55      0.        3.15 
 Bq                   -4.35      0.       -2.85 
 Bq                   -4.35      0.       -2.65 
 Bq                   -4.35      0.       -2.45 
 Bq                   -4.35      0.       -2.25 
 Bq                   -4.35      0.       -2.05 
 Bq                   -4.35      0.       -1.85 
 Bq                   -4.35      0.       -1.65 
 Bq                   -4.35      0.       -1.45 
 Bq                   -4.35      0.       -1.25 
 Bq                   -4.35      0.       -1.05 
 Bq                   -4.35      0.       -0.85 
 Bq                   -4.35      0.       -0.65 
 Bq                   -4.35      0.       -0.45 
 Bq                   -4.35      0.       -0.25 
 Bq                   -4.35      0.       -0.05 
 Bq                   -4.35      0.        0.15 
 Bq                   -4.35      0.        0.35 
 Bq                   -4.35      0.        0.55 
 Bq                   -4.35      0.        0.75 
 Bq                   -4.35      0.        0.95 
 Bq                   -4.35      0.        1.15 
 Bq                   -4.35      0.        1.35 
 Bq                   -4.35      0.        1.55 
 Bq                   -4.35      0.        1.75 
 Bq                   -4.35      0.        1.95 
 Bq                   -4.35      0.        2.15 
 Bq                   -4.35      0.        2.35 
 Bq                   -4.35      0.        2.55 
 Bq                   -4.35      0.        2.75 
 Bq                   -4.35      0.        2.95 
 Bq                   -4.35      0.        3.15 
 Bq                   -4.15      0.       -2.85 
 Bq                   -4.15      0.       -2.65 
 Bq                   -4.15      0.       -2.45 
 Bq                   -4.15      0.       -2.25 
 Bq                   -4.15      0.       -2.05 
 Bq                   -4.15      0.       -1.85 
 Bq                   -4.15      0.       -1.65 
 Bq                   -4.15      0.       -1.45 
 Bq                   -4.15      0.       -1.25 
 Bq                   -4.15      0.       -1.05 
 Bq                   -4.15      0.       -0.85 
 Bq                   -4.15      0.       -0.65 
 Bq                   -4.15      0.       -0.45 
 Bq                   -4.15      0.       -0.25 
 Bq                   -4.15      0.       -0.05 
 Bq                   -4.15      0.        0.15 
 Bq                   -4.15      0.        0.35 
 Bq                   -4.15      0.        0.55 
 Bq                   -4.15      0.        0.75 
 Bq                   -4.15      0.        0.95 
 Bq                   -4.15      0.        1.15 
 Bq                   -4.15      0.        1.35 
 Bq                   -4.15      0.        1.55 
 Bq                   -4.15      0.        1.75 
 Bq                   -4.15      0.        1.95 
 Bq                   -4.15      0.        2.15 
 Bq                   -4.15      0.        2.35 
 Bq                   -4.15      0.        2.55 
 Bq                   -4.15      0.        2.75 
 Bq                   -4.15      0.        2.95 
 Bq                   -4.15      0.        3.15 
 Bq                   -3.95      0.       -2.85 
 Bq                   -3.95      0.       -2.65 
 Bq                   -3.95      0.       -2.45 
 Bq                   -3.95      0.       -2.25 
 Bq                   -3.95      0.       -2.05 
 Bq                   -3.95      0.       -1.85 
 Bq                   -3.95      0.       -1.65 
 Bq                   -3.95      0.       -1.45 
 Bq                   -3.95      0.       -1.25 
 Bq                   -3.95      0.       -1.05 
 Bq                   -3.95      0.       -0.85 
 Bq                   -3.95      0.       -0.65 
 Bq                   -3.95      0.       -0.45 
 Bq                   -3.95      0.       -0.25 
 Bq                   -3.95      0.       -0.05 
 Bq                   -3.95      0.        0.15 
 Bq                   -3.95      0.        0.35 
 Bq                   -3.95      0.        0.55 
 Bq                   -3.95      0.        0.75 
 Bq                   -3.95      0.        0.95 
 Bq                   -3.95      0.        1.15 
 Bq                   -3.95      0.        1.35 
 Bq                   -3.95      0.        1.55 
 Bq                   -3.95      0.        1.75 
 Bq                   -3.95      0.        1.95 
 Bq                   -3.95      0.        2.15 
 Bq                   -3.95      0.        2.35 
 Bq                   -3.95      0.        2.55 
 Bq                   -3.95      0.        2.75 
 Bq                   -3.95      0.        2.95 
 Bq                   -3.95      0.        3.15 
 Bq                   -3.75      0.       -2.85 
 Bq                   -3.75      0.       -2.65 
 Bq                   -3.75      0.       -2.45 
 Bq                   -3.75      0.       -2.25 
 Bq                   -3.75      0.       -2.05 
 Bq                   -3.75      0.       -1.85 
 Bq                   -3.75      0.       -1.65 
 Bq                   -3.75      0.       -1.45 
 Bq                   -3.75      0.       -1.25 
 Bq                   -3.75      0.       -1.05 
 Bq                   -3.75      0.       -0.85 
 Bq                   -3.75      0.       -0.65 
 Bq                   -3.75      0.       -0.45 
 Bq                   -3.75      0.       -0.25 
 Bq                   -3.75      0.       -0.05 
 Bq                   -3.75      0.        0.15 
 Bq                   -3.75      0.        0.35 
 Bq                   -3.75      0.        0.55 
 Bq                   -3.75      0.        0.75 
 Bq                   -3.75      0.        0.95 
 Bq                   -3.75      0.        1.15 
 Bq                   -3.75      0.        1.35 
 Bq                   -3.75      0.        1.55 
 Bq                   -3.75      0.        1.75 
 Bq                   -3.75      0.        1.95 
 Bq                   -3.75      0.        2.15 
 Bq                   -3.75      0.        2.35 
 Bq                   -3.75      0.        2.55 
 Bq                   -3.75      0.        2.75 
 Bq                   -3.75      0.        2.95 
 Bq                   -3.75      0.        3.15 
 Bq                   -3.55      0.       -2.85 
 Bq                   -3.55      0.       -2.65 
 Bq                   -3.55      0.       -2.45 
 Bq                   -3.55      0.       -2.25 
 Bq                   -3.55      0.       -2.05 
 Bq                   -3.55      0.       -1.85 
 Bq                   -3.55      0.       -1.65 
 Bq                   -3.55      0.       -1.45 
 Bq                   -3.55      0.       -1.25 
 Bq                   -3.55      0.       -1.05 
 Bq                   -3.55      0.       -0.85 
 Bq                   -3.55      0.       -0.65 
 Bq                   -3.55      0.       -0.45 
 Bq                   -3.55      0.       -0.25 
 Bq                   -3.55      0.       -0.05 
 Bq                   -3.55      0.        0.15 
 Bq                   -3.55      0.        0.35 
 Bq                   -3.55      0.        0.55 
 Bq                   -3.55      0.        0.75 
 Bq                   -3.55      0.        0.95 
 Bq                   -3.55      0.        1.15 
 Bq                   -3.55      0.        1.35 
 Bq                   -3.55      0.        1.55 
 Bq                   -3.55      0.        1.75 
 Bq                   -3.55      0.        1.95 
 Bq                   -3.55      0.        2.15 
 Bq                   -3.55      0.        2.35 
 Bq                   -3.55      0.        2.55 
 Bq                   -3.55      0.        2.75 
 Bq                   -3.55      0.        2.95 
 Bq                   -3.55      0.        3.15 
 Bq                   -3.35      0.       -2.85 
 Bq                   -3.35      0.       -2.65 
 Bq                   -3.35      0.       -2.45 
 Bq                   -3.35      0.       -2.25 
 Bq                   -3.35      0.       -2.05 
 Bq                   -3.35      0.       -1.85 
 Bq                   -3.35      0.       -1.65 
 Bq                   -3.35      0.       -1.45 
 Bq                   -3.35      0.       -1.25 
 Bq                   -3.35      0.       -1.05 
 Bq                   -3.35      0.       -0.85 
 Bq                   -3.35      0.       -0.65 
 Bq                   -3.35      0.       -0.45 
 Bq                   -3.35      0.       -0.25 
 Bq                   -3.35      0.       -0.05 
 Bq                   -3.35      0.        0.15 
 Bq                   -3.35      0.        0.35 
 Bq                   -3.35      0.        0.55 
 Bq                   -3.35      0.        0.75 
 Bq                   -3.35      0.        0.95 
 Bq                   -3.35      0.        1.15 
 Bq                   -3.35      0.        1.35 
 Bq                   -3.35      0.        1.55 
 Bq                   -3.35      0.        1.75 
 Bq                   -3.35      0.        1.95 
 Bq                   -3.35      0.        2.15 
 Bq                   -3.35      0.        2.35 
 Bq                   -3.35      0.        2.55 
 Bq                   -3.35      0.        2.75 
 Bq                   -3.35      0.        2.95 
 Bq                   -3.35      0.        3.15 
 Bq                   -3.15      0.       -2.85 
 Bq                   -3.15      0.       -2.65 
 Bq                   -3.15      0.       -2.45 
 Bq                   -3.15      0.       -2.25 
 Bq                   -3.15      0.       -2.05 
 Bq                   -3.15      0.       -1.85 
 Bq                   -3.15      0.       -1.65 
 Bq                   -3.15      0.       -1.45 
 Bq                   -3.15      0.       -1.25 
 Bq                   -3.15      0.       -1.05 
 Bq                   -3.15      0.       -0.85 
 Bq                   -3.15      0.       -0.65 
 Bq                   -3.15      0.       -0.45 
 Bq                   -3.15      0.       -0.25 
 Bq                   -3.15      0.       -0.05 
 Bq                   -3.15      0.        0.15 
 Bq                   -3.15      0.        0.35 
 Bq                   -3.15      0.        0.55 
 Bq                   -3.15      0.        0.75 
 Bq                   -3.15      0.        0.95 
 Bq                   -3.15      0.        1.15 
 Bq                   -3.15      0.        1.35 
 Bq                   -3.15      0.        1.55 
 Bq                   -3.15      0.        1.75 
 Bq                   -3.15      0.        1.95 
 Bq                   -3.15      0.        2.15 
 Bq                   -3.15      0.        2.35 
 Bq                   -3.15      0.        2.55 
 Bq                   -3.15      0.        2.75 
 Bq                   -3.15      0.        2.95 
 Bq                   -3.15      0.        3.15 
 Bq                   -2.95      0.       -2.85 
 Bq                   -2.95      0.       -2.65 
 Bq                   -2.95      0.       -2.45 
 Bq                   -2.95      0.       -2.25 
 Bq                   -2.95      0.       -2.05 
 Bq                   -2.95      0.       -1.85 
 Bq                   -2.95      0.       -1.65 
 Bq                   -2.95      0.       -1.45 
 Bq                   -2.95      0.       -1.25 
 Bq                   -2.95      0.       -1.05 
 Bq                   -2.95      0.       -0.85 
 Bq                   -2.95      0.       -0.65 
 Bq                   -2.95      0.       -0.45 
 Bq                   -2.95      0.       -0.25 
 Bq                   -2.95      0.       -0.05 
 Bq                   -2.95      0.        0.15 
 Bq                   -2.95      0.        0.35 
 Bq                   -2.95      0.        0.55 
 Bq                   -2.95      0.        0.75 
 Bq                   -2.95      0.        0.95 
 Bq                   -2.95      0.        1.15 
 Bq                   -2.95      0.        1.35 
 Bq                   -2.95      0.        1.55 
 Bq                   -2.95      0.        1.75 
 Bq                   -2.95      0.        1.95 
 Bq                   -2.95      0.        2.15 
 Bq                   -2.95      0.        2.35 
 Bq                   -2.95      0.        2.55 
 Bq                   -2.95      0.        2.75 
 Bq                   -2.95      0.        2.95 
 Bq                   -2.95      0.        3.15 
 Bq                   -2.75      0.       -2.85 
 Bq                   -2.75      0.       -2.65 
 Bq                   -2.75      0.       -2.45 
 Bq                   -2.75      0.       -2.25 
 Bq                   -2.75      0.       -2.05 
 Bq                   -2.75      0.       -1.85 
 Bq                   -2.75      0.       -1.65 
 Bq                   -2.75      0.       -1.45 
 Bq                   -2.75      0.       -1.25 
 Bq                   -2.75      0.       -1.05 
 Bq                   -2.75      0.       -0.85 
 Bq                   -2.75      0.       -0.65 
 Bq                   -2.75      0.       -0.45 
 Bq                   -2.75      0.       -0.25 
 Bq                   -2.75      0.       -0.05 
 Bq                   -2.75      0.        0.15 
 Bq                   -2.75      0.        0.35 
 Bq                   -2.75      0.        0.55 
 Bq                   -2.75      0.        0.75 
 Bq                   -2.75      0.        0.95 
 Bq                   -2.75      0.        1.15 
 Bq                   -2.75      0.        1.35 
 Bq                   -2.75      0.        1.55 
 Bq                   -2.75      0.        1.75 
 Bq                   -2.75      0.        1.95 
 Bq                   -2.75      0.        2.15 
 Bq                   -2.75      0.        2.35 
 Bq                   -2.75      0.        2.55 
 Bq                   -2.75      0.        2.75 
 Bq                   -2.75      0.        2.95 
 Bq                   -2.75      0.        3.15 
 Bq                   -2.55      0.       -2.85 
 Bq                   -2.55      0.       -2.65 
 Bq                   -2.55      0.       -2.45 
 Bq                   -2.55      0.       -2.25 
 Bq                   -2.55      0.       -2.05 
 Bq                   -2.55      0.       -1.85 
 Bq                   -2.55      0.       -1.65 
 Bq                   -2.55      0.       -1.45 
 Bq                   -2.55      0.       -1.25 
 Bq                   -2.55      0.       -1.05 
 Bq                   -2.55      0.       -0.85 
 Bq                   -2.55      0.       -0.65 
 Bq                   -2.55      0.       -0.45 
 Bq                   -2.55      0.       -0.25 
 Bq                   -2.55      0.       -0.05 
 Bq                   -2.55      0.        0.15 
 Bq                   -2.55      0.        0.35 
 Bq                   -2.55      0.        0.55 
 Bq                   -2.55      0.        0.75 
 Bq                   -2.55      0.        0.95 
 Bq                   -2.55      0.        1.15 
 Bq                   -2.55      0.        1.35 
 Bq                   -2.55      0.        1.55 
 Bq                   -2.55      0.        1.75 
 Bq                   -2.55      0.        1.95 
 Bq                   -2.55      0.        2.15 
 Bq                   -2.55      0.        2.35 
 Bq                   -2.55      0.        2.55 
 Bq                   -2.55      0.        2.75 
 Bq                   -2.55      0.        2.95 
 Bq                   -2.55      0.        3.15 
 Bq                   -2.35      0.       -2.85 
 Bq                   -2.35      0.       -2.65 
 Bq                   -2.35      0.       -2.45 
 Bq                   -2.35      0.       -2.25 
 Bq                   -2.35      0.       -2.05 
 Bq                   -2.35      0.       -1.85 
 Bq                   -2.35      0.       -1.65 
 Bq                   -2.35      0.       -1.45 
 Bq                   -2.35      0.       -1.25 
 Bq                   -2.35      0.       -1.05 
 Bq                   -2.35      0.       -0.85 
 Bq                   -2.35      0.       -0.65 
 Bq                   -2.35      0.       -0.45 
 Bq                   -2.35      0.       -0.25 
 Bq                   -2.35      0.       -0.05 
 Bq                   -2.35      0.        0.15 
 Bq                   -2.35      0.        0.35 
 Bq                   -2.35      0.        0.55 
 Bq                   -2.35      0.        0.75 
 Bq                   -2.35      0.        0.95 
 Bq                   -2.35      0.        1.15 
 Bq                   -2.35      0.        1.35 
 Bq                   -2.35      0.        1.55 
 Bq                   -2.35      0.        1.75 
 Bq                   -2.35      0.        1.95 
 Bq                   -2.35      0.        2.15 
 Bq                   -2.35      0.        2.35 
 Bq                   -2.35      0.        2.55 
 Bq                   -2.35      0.        2.75 
 Bq                   -2.35      0.        2.95 
 Bq                   -2.35      0.        3.15 
 Bq                   -2.15      0.       -2.85 
 Bq                   -2.15      0.       -2.65 
 Bq                   -2.15      0.       -2.45 
 Bq                   -2.15      0.       -2.25 
 Bq                   -2.15      0.       -2.05 
 Bq                   -2.15      0.       -1.85 
 Bq                   -2.15      0.       -1.65 
 Bq                   -2.15      0.       -1.45 
 Bq                   -2.15      0.       -1.25 
 Bq                   -2.15      0.       -1.05 
 Bq                   -2.15      0.       -0.85 
 Bq                   -2.15      0.       -0.65 
 Bq                   -2.15      0.       -0.45 
 Bq                   -2.15      0.       -0.25 
 Bq                   -2.15      0.       -0.05 
 Bq                   -2.15      0.        0.15 
 Bq                   -2.15      0.        0.35 
 Bq                   -2.15      0.        0.55 
 Bq                   -2.15      0.        0.75 
 Bq                   -2.15      0.        0.95 
 Bq                   -2.15      0.        1.15 
 Bq                   -2.15      0.        1.35 
 Bq                   -2.15      0.        1.55 
 Bq                   -2.15      0.        1.75 
 Bq                   -2.15      0.        1.95 
 Bq                   -2.15      0.        2.15 
 Bq                   -2.15      0.        2.35 
 Bq                   -2.15      0.        2.55 
 Bq                   -2.15      0.        2.75 
 Bq                   -2.15      0.        2.95 
 Bq                   -2.15      0.        3.15 
 Bq                   -1.95      0.       -2.85 
 Bq                   -1.95      0.       -2.65 
 Bq                   -1.95      0.       -2.45 
 Bq                   -1.95      0.       -2.25 
 Bq                   -1.95      0.       -2.05 
 Bq                   -1.95      0.       -1.85 
 Bq                   -1.95      0.       -1.65 
 Bq                   -1.95      0.       -1.45 
 Bq                   -1.95      0.       -1.25 
 Bq                   -1.95      0.       -1.05 
 Bq                   -1.95      0.       -0.85 
 Bq                   -1.95      0.       -0.65 
 Bq                   -1.95      0.       -0.45 
 Bq                   -1.95      0.       -0.25 
 Bq                   -1.95      0.       -0.05 
 Bq                   -1.95      0.        0.15 
 Bq                   -1.95      0.        0.35 
 Bq                   -1.95      0.        0.55 
 Bq                   -1.95      0.        0.75 
 Bq                   -1.95      0.        0.95 
 Bq                   -1.95      0.        1.15 
 Bq                   -1.95      0.        1.35 
 Bq                   -1.95      0.        1.55 
 Bq                   -1.95      0.        1.75 
 Bq                   -1.95      0.        1.95 
 Bq                   -1.95      0.        2.15 
 Bq                   -1.95      0.        2.35 
 Bq                   -1.95      0.        2.55 
 Bq                   -1.95      0.        2.75 
 Bq                   -1.95      0.        2.95 
 Bq                   -1.95      0.        3.15 
 Bq                   -1.75      0.       -2.85 
 Bq                   -1.75      0.       -2.65 
 Bq                   -1.75      0.       -2.45 
 Bq                   -1.75      0.       -2.25 
 Bq                   -1.75      0.       -2.05 
 Bq                   -1.75      0.       -1.85 
 Bq                   -1.75      0.       -1.65 
 Bq                   -1.75      0.       -1.45 
 Bq                   -1.75      0.       -1.25 
 Bq                   -1.75      0.       -1.05 
 Bq                   -1.75      0.       -0.85 
 Bq                   -1.75      0.       -0.65 
 Bq                   -1.75      0.       -0.45 
 Bq                   -1.75      0.       -0.25 
 Bq                   -1.75      0.       -0.05 
 Bq                   -1.75      0.        0.15 
 Bq                   -1.75      0.        0.35 
 Bq                   -1.75      0.        0.55 
 Bq                   -1.75      0.        0.75 
 Bq                   -1.75      0.        0.95 
 Bq                   -1.75      0.        1.15 
 Bq                   -1.75      0.        1.35 
 Bq                   -1.75      0.        1.55 
 Bq                   -1.75      0.        1.75 
 Bq                   -1.75      0.        1.95 
 Bq                   -1.75      0.        2.15 
 Bq                   -1.75      0.        2.35 
 Bq                   -1.75      0.        2.55 
 Bq                   -1.75      0.        2.75 
 Bq                   -1.75      0.        2.95 
 Bq                   -1.75      0.        3.15 
 Bq                   -1.55      0.       -2.85 
 Bq                   -1.55      0.       -2.65 
 Bq                   -1.55      0.       -2.45 
 Bq                   -1.55      0.       -2.25 
 Bq                   -1.55      0.       -2.05 
 Bq                   -1.55      0.       -1.85 
 Bq                   -1.55      0.       -1.65 
 Bq                   -1.55      0.       -1.45 
 Bq                   -1.55      0.       -1.25 
 Bq                   -1.55      0.       -1.05 
 Bq                   -1.55      0.       -0.85 
 Bq                   -1.55      0.       -0.65 
 Bq                   -1.55      0.       -0.45 
 Bq                   -1.55      0.       -0.25 
 Bq                   -1.55      0.       -0.05 
 Bq                   -1.55      0.        0.15 
 Bq                   -1.55      0.        0.35 
 Bq                   -1.55      0.        0.55 
 Bq                   -1.55      0.        0.75 
 Bq                   -1.55      0.        0.95 
 Bq                   -1.55      0.        1.15 
 Bq                   -1.55      0.        1.35 
 Bq                   -1.55      0.        1.55 
 Bq                   -1.55      0.        1.75 
 Bq                   -1.55      0.        1.95 
 Bq                   -1.55      0.        2.15 
 Bq                   -1.55      0.        2.35 
 Bq                   -1.55      0.        2.55 
 Bq                   -1.55      0.        2.75 
 Bq                   -1.55      0.        2.95 
 Bq                   -1.55      0.        3.15 
 Bq                   -1.35      0.       -2.85 
 Bq                   -1.35      0.       -2.65 
 Bq                   -1.35      0.       -2.45 
 Bq                   -1.35      0.       -2.25 
 Bq                   -1.35      0.       -2.05 
 Bq                   -1.35      0.       -1.85 
 Bq                   -1.35      0.       -1.65 
 Bq                   -1.35      0.       -1.45 
 Bq                   -1.35      0.       -1.25 
 Bq                   -1.35      0.       -1.05 
 Bq                   -1.35      0.       -0.85 
 Bq                   -1.35      0.       -0.65 
 Bq                   -1.35      0.       -0.45 
 Bq                   -1.35      0.       -0.25 
 Bq                   -1.35      0.       -0.05 
 Bq                   -1.35      0.        0.15 
 Bq                   -1.35      0.        0.35 
 Bq                   -1.35      0.        0.55 
 Bq                   -1.35      0.        0.75 
 Bq                   -1.35      0.        0.95 
 Bq                   -1.35      0.        1.15 
 Bq                   -1.35      0.        1.35 
 Bq                   -1.35      0.        1.55 
 Bq                   -1.35      0.        1.75 
 Bq                   -1.35      0.        1.95 
 Bq                   -1.35      0.        2.15 
 Bq                   -1.35      0.        2.35 
 Bq                   -1.35      0.        2.55 
 Bq                   -1.35      0.        2.75 
 Bq                   -1.35      0.        2.95 
 Bq                   -1.35      0.        3.15 
 Bq                   -1.15      0.       -2.85 
 Bq                   -1.15      0.       -2.65 
 Bq                   -1.15      0.       -2.45 
 Bq                   -1.15      0.       -2.25 
 Bq                   -1.15      0.       -2.05 
 Bq                   -1.15      0.       -1.85 
 Bq                   -1.15      0.       -1.65 
 Bq                   -1.15      0.       -1.45 
 Bq                   -1.15      0.       -1.25 
 Bq                   -1.15      0.       -1.05 
 Bq                   -1.15      0.       -0.85 
 Bq                   -1.15      0.       -0.65 
 Bq                   -1.15      0.       -0.45 
 Bq                   -1.15      0.       -0.25 
 Bq                   -1.15      0.       -0.05 
 Bq                   -1.15      0.        0.15 
 Bq                   -1.15      0.        0.35 
 Bq                   -1.15      0.        0.55 
 Bq                   -1.15      0.        0.75 
 Bq                   -1.15      0.        0.95 
 Bq                   -1.15      0.        1.15 
 Bq                   -1.15      0.        1.35 
 Bq                   -1.15      0.        1.55 
 Bq                   -1.15      0.        1.75 
 Bq                   -1.15      0.        1.95 
 Bq                   -1.15      0.        2.15 
 Bq                   -1.15      0.        2.35 
 Bq                   -1.15      0.        2.55 
 Bq                   -1.15      0.        2.75 
 Bq                   -1.15      0.        2.95 
 Bq                   -1.15      0.        3.15 
 Bq                   -0.95      0.       -2.85 
 Bq                   -0.95      0.       -2.65 
 Bq                   -0.95      0.       -2.45 
 Bq                   -0.95      0.       -2.25 
 Bq                   -0.95      0.       -2.05 
 Bq                   -0.95      0.       -1.85 
 Bq                   -0.95      0.       -1.65 
 Bq                   -0.95      0.       -1.45 
 Bq                   -0.95      0.       -1.25 
 Bq                   -0.95      0.       -1.05 
 Bq                   -0.95      0.       -0.85 
 Bq                   -0.95      0.       -0.65 
 Bq                   -0.95      0.       -0.45 
 Bq                   -0.95      0.       -0.25 
 Bq                   -0.95      0.       -0.05 
 Bq                   -0.95      0.        0.15 
 Bq                   -0.95      0.        0.35 
 Bq                   -0.95      0.        0.55 
 Bq                   -0.95      0.        0.75 
 Bq                   -0.95      0.        0.95 
 Bq                   -0.95      0.        1.15 
 Bq                   -0.95      0.        1.35 
 Bq                   -0.95      0.        1.55 
 Bq                   -0.95      0.        1.75 
 Bq                   -0.95      0.        1.95 
 Bq                   -0.95      0.        2.15 
 Bq                   -0.95      0.        2.35 
 Bq                   -0.95      0.        2.55 
 Bq                   -0.95      0.        2.75 
 Bq                   -0.95      0.        2.95 
 Bq                   -0.95      0.        3.15 
 Bq                   -0.75      0.       -2.85 
 Bq                   -0.75      0.       -2.65 
 Bq                   -0.75      0.       -2.45 
 Bq                   -0.75      0.       -2.25 
 Bq                   -0.75      0.       -2.05 
 Bq                   -0.75      0.       -1.85 
 Bq                   -0.75      0.       -1.65 
 Bq                   -0.75      0.       -1.45 
 Bq                   -0.75      0.       -1.25 
 Bq                   -0.75      0.       -1.05 
 Bq                   -0.75      0.       -0.85 
 Bq                   -0.75      0.       -0.65 
 Bq                   -0.75      0.       -0.45 
 Bq                   -0.75      0.       -0.25 
 Bq                   -0.75      0.       -0.05 
 Bq                   -0.75      0.        0.15 
 Bq                   -0.75      0.        0.35 
 Bq                   -0.75      0.        0.55 
 Bq                   -0.75      0.        0.75 
 Bq                   -0.75      0.        0.95 
 Bq                   -0.75      0.        1.15 
 Bq                   -0.75      0.        1.35 
 Bq                   -0.75      0.        1.55 
 Bq                   -0.75      0.        1.75 
 Bq                   -0.75      0.        1.95 
 Bq                   -0.75      0.        2.15 
 Bq                   -0.75      0.        2.35 
 Bq                   -0.75      0.        2.55 
 Bq                   -0.75      0.        2.75 
 Bq                   -0.75      0.        2.95 
 Bq                   -0.75      0.        3.15 
 Bq                   -0.55      0.       -2.85 
 Bq                   -0.55      0.       -2.65 
 Bq                   -0.55      0.       -2.45 
 Bq                   -0.55      0.       -2.25 
 Bq                   -0.55      0.       -2.05 
 Bq                   -0.55      0.       -1.85 
 Bq                   -0.55      0.       -1.65 
 Bq                   -0.55      0.       -1.45 
 Bq                   -0.55      0.       -1.25 
 Bq                   -0.55      0.       -1.05 
 Bq                   -0.55      0.       -0.85 
 Bq                   -0.55      0.       -0.65 
 Bq                   -0.55      0.       -0.45 
 Bq                   -0.55      0.       -0.25 
 Bq                   -0.55      0.       -0.05 
 Bq                   -0.55      0.        0.15 
 Bq                   -0.55      0.        0.35 
 Bq                   -0.55      0.        0.55 
 Bq                   -0.55      0.        0.75 
 Bq                   -0.55      0.        0.95 
 Bq                   -0.55      0.        1.15 
 Bq                   -0.55      0.        1.35 
 Bq                   -0.55      0.        1.55 
 Bq                   -0.55      0.        1.75 
 Bq                   -0.55      0.        1.95 
 Bq                   -0.55      0.        2.15 
 Bq                   -0.55      0.        2.35 
 Bq                   -0.55      0.        2.55 
 Bq                   -0.55      0.        2.75 
 Bq                   -0.55      0.        2.95 
 Bq                   -0.55      0.        3.15 
 Bq                   -0.35      0.       -2.85 
 Bq                   -0.35      0.       -2.65 
 Bq                   -0.35      0.       -2.45 
 Bq                   -0.35      0.       -2.25 
 Bq                   -0.35      0.       -2.05 
 Bq                   -0.35      0.       -1.85 
 Bq                   -0.35      0.       -1.65 
 Bq                   -0.35      0.       -1.45 
 Bq                   -0.35      0.       -1.25 
 Bq                   -0.35      0.       -1.05 
 Bq                   -0.35      0.       -0.85 
 Bq                   -0.35      0.       -0.65 
 Bq                   -0.35      0.       -0.45 
 Bq                   -0.35      0.       -0.25 
 Bq                   -0.35      0.       -0.05 
 Bq                   -0.35      0.        0.15 
 Bq                   -0.35      0.        0.35 
 Bq                   -0.35      0.        0.55 
 Bq                   -0.35      0.        0.75 
 Bq                   -0.35      0.        0.95 
 Bq                   -0.35      0.        1.15 
 Bq                   -0.35      0.        1.35 
 Bq                   -0.35      0.        1.55 
 Bq                   -0.35      0.        1.75 
 Bq                   -0.35      0.        1.95 
 Bq                   -0.35      0.        2.15 
 Bq                   -0.35      0.        2.35 
 Bq                   -0.35      0.        2.55 
 Bq                   -0.35      0.        2.75 
 Bq                   -0.35      0.        2.95 
 Bq                   -0.35      0.        3.15 
 Bq                   -0.15      0.       -2.85 
 Bq                   -0.15      0.       -2.65 
 Bq                   -0.15      0.       -2.45 
 Bq                   -0.15      0.       -2.25 
 Bq                   -0.15      0.       -2.05 
 Bq                   -0.15      0.       -1.85 
 Bq                   -0.15      0.       -1.65 
 Bq                   -0.15      0.       -1.45 
 Bq                   -0.15      0.       -1.25 
 Bq                   -0.15      0.       -1.05 
 Bq                   -0.15      0.       -0.85 
 Bq                   -0.15      0.       -0.65 
 Bq                   -0.15      0.       -0.45 
 Bq                   -0.15      0.       -0.25 
 Bq                   -0.15      0.       -0.05 
 Bq                   -0.15      0.        0.15 
 Bq                   -0.15      0.        0.35 
 Bq                   -0.15      0.        0.55 
 Bq                   -0.15      0.        0.75 
 Bq                   -0.15      0.        0.95 
 Bq                   -0.15      0.        1.15 
 Bq                   -0.15      0.        1.35 
 Bq                   -0.15      0.        1.55 
 Bq                   -0.15      0.        1.75 
 Bq                   -0.15      0.        1.95 
 Bq                   -0.15      0.        2.15 
 Bq                   -0.15      0.        2.35 
 Bq                   -0.15      0.        2.55 
 Bq                   -0.15      0.        2.75 
 Bq                   -0.15      0.        2.95 
 Bq                   -0.15      0.        3.15 
 Bq                    0.05      0.       -2.85 
 Bq                    0.05      0.       -2.65 
 Bq                    0.05      0.       -2.45 
 Bq                    0.05      0.       -2.25 
 Bq                    0.05      0.       -2.05 
 Bq                    0.05      0.       -1.85 
 Bq                    0.05      0.       -1.65 
 Bq                    0.05      0.       -1.45 
 Bq                    0.05      0.       -1.25 
 Bq                    0.05      0.       -1.05 
 Bq                    0.05      0.       -0.85 
 Bq                    0.05      0.       -0.65 
 Bq                    0.05      0.       -0.45 
 Bq                    0.05      0.       -0.25 
 Bq                    0.05      0.       -0.05 
 Bq                    0.05      0.        0.15 
 Bq                    0.05      0.        0.35 
 Bq                    0.05      0.        0.55 
 Bq                    0.05      0.        0.75 
 Bq                    0.05      0.        0.95 
 Bq                    0.05      0.        1.15 
 Bq                    0.05      0.        1.35 
 Bq                    0.05      0.        1.55 
 Bq                    0.05      0.        1.75 
 Bq                    0.05      0.        1.95 
 Bq                    0.05      0.        2.15 
 Bq                    0.05      0.        2.35 
 Bq                    0.05      0.        2.55 
 Bq                    0.05      0.        2.75 
 Bq                    0.05      0.        2.95 
 Bq                    0.05      0.        3.15 
 Bq                    0.25      0.       -2.85 
 Bq                    0.25      0.       -2.65 
 Bq                    0.25      0.       -2.45 
 Bq                    0.25      0.       -2.25 
 Bq                    0.25      0.       -2.05 
 Bq                    0.25      0.       -1.85 
 Bq                    0.25      0.       -1.65 
 Bq                    0.25      0.       -1.45 
 Bq                    0.25      0.       -1.25 
 Bq                    0.25      0.       -1.05 
 Bq                    0.25      0.       -0.85 
 Bq                    0.25      0.       -0.65 
 Bq                    0.25      0.       -0.45 
 Bq                    0.25      0.       -0.25 
 Bq                    0.25      0.       -0.05 
 Bq                    0.25      0.        0.15 
 Bq                    0.25      0.        0.35 
 Bq                    0.25      0.        0.55 
 Bq                    0.25      0.        0.75 
 Bq                    0.25      0.        0.95 
 Bq                    0.25      0.        1.15 
 Bq                    0.25      0.        1.35 
 Bq                    0.25      0.        1.55 
 Bq                    0.25      0.        1.75 
 Bq                    0.25      0.        1.95 
 Bq                    0.25      0.        2.15 
 Bq                    0.25      0.        2.35 
 Bq                    0.25      0.        2.55 
[...]
 .45,0.,-2.25\Bq,0,2.45,0.,-2.05\Bq,0,2.45,0.,-1.85\Bq,0,2.45,0.,-1.65\
 Bq,0,2.45,0.,-1.45\Bq,0,2.45,0.,-1.25\Bq,0,2.45,0.,-1.05\Bq,0,2.45,0.,
 -0.85\Bq,0,2.45,0.,-0.65\Bq,0,2.45,0.,-0.45\Bq,0,2.45,0.,-0.25\Bq,0,2.
 45,0.,-0.05\Bq,0,2.45,0.,0.15\Bq,0,2.45,0.,0.35\Bq,0,2.45,0.,0.55\Bq,0
 ,2.45,0.,0.75\Bq,0,2.45,0.,0.95\Bq,0,2.45,0.,1.15\Bq,0,2.45,0.,1.35\Bq
 ,0,2.45,0.,1.55\Bq,0,2.45,0.,1.75\Bq,0,2.45,0.,1.95\Bq,0,2.45,0.,2.15\
 Bq,0,2.45,0.,2.35\Bq,0,2.45,0.,2.55\Bq,0,2.45,0.,2.75\Bq,0,2.45,0.,2.9
 5\Bq,0,2.45,0.,3.15\Bq,0,2.65,0.,-2.85\Bq,0,2.65,0.,-2.65\Bq,0,2.65,0.
 ,-2.45\Bq,0,2.65,0.,-2.25\Bq,0,2.65,0.,-2.05\Bq,0,2.65,0.,-1.85\Bq,0,2
 .65,0.,-1.65\Bq,0,2.65,0.,-1.45\Bq,0,2.65,0.,-1.25\Bq,0,2.65,0.,-1.05\
 Bq,0,2.65,0.,-0.85\Bq,0,2.65,0.,-0.65\Bq,0,2.65,0.,-0.45\Bq,0,2.65,0.,
 -0.25\Bq,0,2.65,0.,-0.05\Bq,0,2.65,0.,0.15\Bq,0,2.65,0.,0.35\Bq,0,2.65
 ,0.,0.55\Bq,0,2.65,0.,0.75\Bq,0,2.65,0.,0.95\Bq,0,2.65,0.,1.15\Bq,0,2.
 65,0.,1.35\Bq,0,2.65,0.,1.55\Bq,0,2.65,0.,1.75\Bq,0,2.65,0.,1.95\Bq,0,
 2.65,0.,2.15\Bq,0,2.65,0.,2.35\Bq,0,2.65,0.,2.55\Bq,0,2.65,0.,2.75\Bq,
 0,2.65,0.,2.95\Bq,0,2.65,0.,3.15\Bq,0,2.85,0.,-2.85\Bq,0,2.85,0.,-2.65
 \Bq,0,2.85,0.,-2.45\Bq,0,2.85,0.,-2.25\Bq,0,2.85,0.,-2.05\Bq,0,2.85,0.
 ,-1.85\Bq,0,2.85,0.,-1.65\Bq,0,2.85,0.,-1.45\Bq,0,2.85,0.,-1.25\Bq,0,2
 .85,0.,-1.05\Bq,0,2.85,0.,-0.85\Bq,0,2.85,0.,-0.65\Bq,0,2.85,0.,-0.45\
 Bq,0,2.85,0.,-0.25\Bq,0,2.85,0.,-0.05\Bq,0,2.85,0.,0.15\Bq,0,2.85,0.,0
 .35\Bq,0,2.85,0.,0.55\Bq,0,2.85,0.,0.75\Bq,0,2.85,0.,0.95\Bq,0,2.85,0.
 ,1.15\Bq,0,2.85,0.,1.35\Bq,0,2.85,0.,1.55\Bq,0,2.85,0.,1.75\Bq,0,2.85,
 0.,1.95\Bq,0,2.85,0.,2.15\Bq,0,2.85,0.,2.35\Bq,0,2.85,0.,2.55\Bq,0,2.8
 5,0.,2.75\Bq,0,2.85,0.,2.95\Bq,0,2.85,0.,3.15\Bq,0,3.05,0.,-2.85\Bq,0,
 3.05,0.,-2.65\Bq,0,3.05,0.,-2.45\Bq,0,3.05,0.,-2.25\Bq,0,3.05,0.,-2.05
 \Bq,0,3.05,0.,-1.85\Bq,0,3.05,0.,-1.65\Bq,0,3.05,0.,-1.45\Bq,0,3.05,0.
 ,-1.25\Bq,0,3.05,0.,-1.05\Bq,0,3.05,0.,-0.85\Bq,0,3.05,0.,-0.65\Bq,0,3
 .05,0.,-0.45\Bq,0,3.05,0.,-0.25\Bq,0,3.05,0.,-0.05\Bq,0,3.05,0.,0.15\B
 q,0,3.05,0.,0.35\Bq,0,3.05,0.,0.55\Bq,0,3.05,0.,0.75\Bq,0,3.05,0.,0.95
 \Bq,0,3.05,0.,1.15\Bq,0,3.05,0.,1.35\Bq,0,3.05,0.,1.55\Bq,0,3.05,0.,1.
 75\Bq,0,3.05,0.,1.95\Bq,0,3.05,0.,2.15\Bq,0,3.05,0.,2.35\Bq,0,3.05,0.,
 2.55\Bq,0,3.05,0.,2.75\Bq,0,3.05,0.,2.95\Bq,0,3.05,0.,3.15\Bq,0,3.25,0
 .,-2.85\Bq,0,3.25,0.,-2.65\Bq,0,3.25,0.,-2.45\Bq,0,3.25,0.,-2.25\Bq,0,
 3.25,0.,-2.05\Bq,0,3.25,0.,-1.85\Bq,0,3.25,0.,-1.65\Bq,0,3.25,0.,-1.45
 \Bq,0,3.25,0.,-1.25\Bq,0,3.25,0.,-1.05\Bq,0,3.25,0.,-0.85\Bq,0,3.25,0.
 ,-0.65\Bq,0,3.25,0.,-0.45\Bq,0,3.25,0.,-0.25\Bq,0,3.25,0.,-0.05\Bq,0,3
 .25,0.,0.15\Bq,0,3.25,0.,0.35\Bq,0,3.25,0.,0.55\Bq,0,3.25,0.,0.75\Bq,0
 ,3.25,0.,0.95\Bq,0,3.25,0.,1.15\Bq,0,3.25,0.,1.35\Bq,0,3.25,0.,1.55\Bq
 ,0,3.25,0.,1.75\Bq,0,3.25,0.,1.95\Bq,0,3.25,0.,2.15\Bq,0,3.25,0.,2.35\
 Bq,0,3.25,0.,2.55\Bq,0,3.25,0.,2.75\Bq,0,3.25,0.,2.95\Bq,0,3.25,0.,3.1
 5\Bq,0,3.45,0.,-2.85\Bq,0,3.45,0.,-2.65\Bq,0,3.45,0.,-2.45\Bq,0,3.45,0
 .,-2.25\Bq,0,3.45,0.,-2.05\Bq,0,3.45,0.,-1.85\Bq,0,3.45,0.,-1.65\Bq,0,
 3.45,0.,-1.45\Bq,0,3.45,0.,-1.25\Bq,0,3.45,0.,-1.05\Bq,0,3.45,0.,-0.85
 \Bq,0,3.45,0.,-0.65\Bq,0,3.45,0.,-0.45\Bq,0,3.45,0.,-0.25\Bq,0,3.45,0.
 ,-0.05\Bq,0,3.45,0.,0.15\Bq,0,3.45,0.,0.35\Bq,0,3.45,0.,0.55\Bq,0,3.45
 ,0.,0.75\Bq,0,3.45,0.,0.95\Bq,0,3.45,0.,1.15\Bq,0,3.45,0.,1.35\Bq,0,3.
 45,0.,1.55\Bq,0,3.45,0.,1.75\Bq,0,3.45,0.,1.95\Bq,0,3.45,0.,2.15\Bq,0,
 3.45,0.,2.35\Bq,0,3.45,0.,2.55\Bq,0,3.45,0.,2.75\Bq,0,3.45,0.,2.95\Bq,
 0,3.45,0.,3.15\Bq,0,3.65,0.,-2.85\Bq,0,3.65,0.,-2.65\Bq,0,3.65,0.,-2.4
 5\Bq,0,3.65,0.,-2.25\Bq,0,3.65,0.,-2.05\Bq,0,3.65,0.,-1.85\Bq,0,3.65,0
 .,-1.65\Bq,0,3.65,0.,-1.45\Bq,0,3.65,0.,-1.25\Bq,0,3.65,0.,-1.05\Bq,0,
 3.65,0.,-0.85\Bq,0,3.65,0.,-0.65\Bq,0,3.65,0.,-0.45\Bq,0,3.65,0.,-0.25
 \Bq,0,3.65,0.,-0.05\Bq,0,3.65,0.,0.15\Bq,0,3.65,0.,0.35\Bq,0,3.65,0.,0
 .55\Bq,0,3.65,0.,0.75\Bq,0,3.65,0.,0.95\Bq,0,3.65,0.,1.15\Bq,0,3.65,0.
 ,1.35\Bq,0,3.65,0.,1.55\Bq,0,3.65,0.,1.75\Bq,0,3.65,0.,1.95\Bq,0,3.65,
 0.,2.15\Bq,0,3.65,0.,2.35\Bq,0,3.65,0.,2.55\Bq,0,3.65,0.,2.75\Bq,0,3.6
 5,0.,2.95\Bq,0,3.65,0.,3.15\Bq,0,3.85,0.,-2.85\Bq,0,3.85,0.,-2.65\Bq,0
 ,3.85,0.,-2.45\Bq,0,3.85,0.,-2.25\Bq,0,3.85,0.,-2.05\Bq,0,3.85,0.,-1.8
 5\Bq,0,3.85,0.,-1.65\Bq,0,3.85,0.,-1.45\Bq,0,3.85,0.,-1.25\Bq,0,3.85,0
 .,-1.05\Bq,0,3.85,0.,-0.85\Bq,0,3.85,0.,-0.65\Bq,0,3.85,0.,-0.45\Bq,0,
 3.85,0.,-0.25\Bq,0,3.85,0.,-0.05\Bq,0,3.85,0.,0.15\Bq,0,3.85,0.,0.35\B
 q,0,3.85,0.,0.55\Bq,0,3.85,0.,0.75\Bq,0,3.85,0.,0.95\Bq,0,3.85,0.,1.15
 \Bq,0,3.85,0.,1.35\Bq,0,3.85,0.,1.55\Bq,0,3.85,0.,1.75\Bq,0,3.85,0.,1.
 95\Bq,0,3.85,0.,2.15\Bq,0,3.85,0.,2.35\Bq,0,3.85,0.,2.55\Bq,0,3.85,0.,
 2.75\Bq,0,3.85,0.,2.95\Bq,0,3.85,0.,3.15\Bq,0,4.05,0.,-2.85\Bq,0,4.05,
 0.,-2.65\Bq,0,4.05,0.,-2.45\Bq,0,4.05,0.,-2.25\Bq,0,4.05,0.,-2.05\Bq,0
 ,4.05,0.,-1.85\Bq,0,4.05,0.,-1.65\Bq,0,4.05,0.,-1.45\Bq,0,4.05,0.,-1.2
 5\Bq,0,4.05,0.,-1.05\Bq,0,4.05,0.,-0.85\Bq,0,4.05,0.,-0.65\Bq,0,4.05,0
 .,-0.45\Bq,0,4.05,0.,-0.25\Bq,0,4.05,0.,-0.05\Bq,0,4.05,0.,0.15\Bq,0,4
 .05,0.,0.35\Bq,0,4.05,0.,0.55\Bq,0,4.05,0.,0.75\Bq,0,4.05,0.,0.95\Bq,0
 ,4.05,0.,1.15\Bq,0,4.05,0.,1.35\Bq,0,4.05,0.,1.55\Bq,0,4.05,0.,1.75\Bq
 ,0,4.05,0.,1.95\Bq,0,4.05,0.,2.15\Bq,0,4.05,0.,2.35\Bq,0,4.05,0.,2.55\
 Bq,0,4.05,0.,2.75\Bq,0,4.05,0.,2.95\Bq,0,4.05,0.,3.15\Bq,0,4.25,0.,-2.
 85\Bq,0,4.25,0.,-2.65\Bq,0,4.25,0.,-2.45\Bq,0,4.25,0.,-2.25\Bq,0,4.25,
 0.,-2.05\Bq,0,4.25,0.,-1.85\Bq,0,4.25,0.,-1.65\Bq,0,4.25,0.,-1.45\Bq,0
 ,4.25,0.,-1.25\Bq,0,4.25,0.,-1.05\Bq,0,4.25,0.,-0.85\Bq,0,4.25,0.,-0.6
 5\Bq,0,4.25,0.,-0.45\Bq,0,4.25,0.,-0.25\Bq,0,4.25,0.,-0.05\Bq,0,4.25,0
 .,0.15\Bq,0,4.25,0.,0.35\Bq,0,4.25,0.,0.55\Bq,0,4.25,0.,0.75\Bq,0,4.25
 ,0.,0.95\Bq,0,4.25,0.,1.15\Bq,0,4.25,0.,1.35\Bq,0,4.25,0.,1.55\Bq,0,4.
 25,0.,1.75\Bq,0,4.25,0.,1.95\Bq,0,4.25,0.,2.15\Bq,0,4.25,0.,2.35\Bq,0,
 4.25,0.,2.55\Bq,0,4.25,0.,2.75\Bq,0,4.25,0.,2.95\Bq,0,4.25,0.,3.15\Bq,
 0,4.45,0.,-2.85\Bq,0,4.45,0.,-2.65\Bq,0,4.45,0.,-2.45\Bq,0,4.45,0.,-2.
 25\Bq,0,4.45,0.,-2.05\Bq,0,4.45,0.,-1.85\Bq,0,4.45,0.,-1.65\Bq,0,4.45,
 0.,-1.45\Bq,0,4.45,0.,-1.25\Bq,0,4.45,0.,-1.05\Bq,0,4.45,0.,-0.85\Bq,0
 ,4.45,0.,-0.65\Bq,0,4.45,0.,-0.45\Bq,0,4.45,0.,-0.25\Bq,0,4.45,0.,-0.0
 5\Bq,0,4.45,0.,0.15\Bq,0,4.45,0.,0.35\Bq,0,4.45,0.,0.55\Bq,0,4.45,0.,0
 .75\Bq,0,4.45,0.,0.95\Bq,0,4.45,0.,1.15\Bq,0,4.45,0.,1.35\Bq,0,4.45,0.
 ,1.55\Bq,0,4.45,0.,1.75\Bq,0,4.45,0.,1.95\Bq,0,4.45,0.,2.15\Bq,0,4.45,
 0.,2.35\Bq,0,4.45,0.,2.55\Bq,0,4.45,0.,2.75\Bq,0,4.45,0.,2.95\Bq,0,4.4
 5,0.,3.15\Bq,0,4.65,0.,-2.85\Bq,0,4.65,0.,-2.65\Bq,0,4.65,0.,-2.45\Bq,
 0,4.65,0.,-2.25\Bq,0,4.65,0.,-2.05\Bq,0,4.65,0.,-1.85\Bq,0,4.65,0.,-1.
 65\Bq,0,4.65,0.,-1.45\Bq,0,4.65,0.,-1.25\Bq,0,4.65,0.,-1.05\Bq,0,4.65,
 0.,-0.85\Bq,0,4.65,0.,-0.65\Bq,0,4.65,0.,-0.45\Bq,0,4.65,0.,-0.25\Bq,0
 ,4.65,0.,-0.05\Bq,0,4.65,0.,0.15\Bq,0,4.65,0.,0.35\Bq,0,4.65,0.,0.55\B
 q,0,4.65,0.,0.75\Bq,0,4.65,0.,0.95\Bq,0,4.65,0.,1.15\Bq,0,4.65,0.,1.35
 \Bq,0,4.65,0.,1.55\Bq,0,4.65,0.,1.75\Bq,0,4.65,0.,1.95\Bq,0,4.65,0.,2.
 15\Bq,0,4.65,0.,2.35\Bq,0,4.65,0.,2.55\Bq,0,4.65,0.,2.75\Bq,0,4.65,0.,
 2.95\Bq,0,4.65,0.,3.15\Bq,0,4.85,0.,-2.85\Bq,0,4.85,0.,-2.65\Bq,0,4.85
 ,0.,-2.45\Bq,0,4.85,0.,-2.25\Bq,0,4.85,0.,-2.05\Bq,0,4.85,0.,-1.85\Bq,
 0,4.85,0.,-1.65\Bq,0,4.85,0.,-1.45\Bq,0,4.85,0.,-1.25\Bq,0,4.85,0.,-1.
 05\Bq,0,4.85,0.,-0.85\Bq,0,4.85,0.,-0.65\Bq,0,4.85,0.,-0.45\Bq,0,4.85,
 0.,-0.25\Bq,0,4.85,0.,-0.05\Bq,0,4.85,0.,0.15\Bq,0,4.85,0.,0.35\Bq,0,4
 .85,0.,0.55\Bq,0,4.85,0.,0.75\Bq,0,4.85,0.,0.95\Bq,0,4.85,0.,1.15\Bq,0
 ,4.85,0.,1.35\Bq,0,4.85,0.,1.55\Bq,0,4.85,0.,1.75\Bq,0,4.85,0.,1.95\Bq
 ,0,4.85,0.,2.15\Bq,0,4.85,0.,2.35\Bq,0,4.85,0.,2.55\Bq,0,4.85,0.,2.75\
 Bq,0,4.85,0.,2.95\Bq,0,4.85,0.,3.15\Bq,0,5.05,0.,-2.85\Bq,0,5.05,0.,-2
 .65\Bq,0,5.05,0.,-2.45\Bq,0,5.05,0.,-2.25\Bq,0,5.05,0.,-2.05\Bq,0,5.05
 ,0.,-1.85\Bq,0,5.05,0.,-1.65\Bq,0,5.05,0.,-1.45\Bq,0,5.05,0.,-1.25\Bq,
 0,5.05,0.,-1.05\Bq,0,5.05,0.,-0.85\Bq,0,5.05,0.,-0.65\Bq,0,5.05,0.,-0.
 45\Bq,0,5.05,0.,-0.25\Bq,0,5.05,0.,-0.05\Bq,0,5.05,0.,0.15\Bq,0,5.05,0
 .,0.35\Bq,0,5.05,0.,0.55\Bq,0,5.05,0.,0.75\Bq,0,5.05,0.,0.95\Bq,0,5.05
 ,0.,1.15\Bq,0,5.05,0.,1.35\Bq,0,5.05,0.,1.55\Bq,0,5.05,0.,1.75\Bq,0,5.
 05,0.,1.95\Bq,0,5.05,0.,2.15\Bq,0,5.05,0.,2.35\Bq,0,5.05,0.,2.55\Bq,0,
 5.05,0.,2.75\Bq,0,5.05,0.,2.95\Bq,0,5.05,0.,3.15\Bq,0,5.25,0.,-2.85\Bq
 ,0,5.25,0.,-2.65\Bq,0,5.25,0.,-2.45\Bq,0,5.25,0.,-2.25\Bq,0,5.25,0.,-2
 .05\Bq,0,5.25,0.,-1.85\Bq,0,5.25,0.,-1.65\Bq,0,5.25,0.,-1.45\Bq,0,5.25
 ,0.,-1.25\Bq,0,5.25,0.,-1.05\Bq,0,5.25,0.,-0.85\Bq,0,5.25,0.,-0.65\Bq,
 0,5.25,0.,-0.45\Bq,0,5.25,0.,-0.25\Bq,0,5.25,0.,-0.05\Bq,0,5.25,0.,0.1
 5\Bq,0,5.25,0.,0.35\Bq,0,5.25,0.,0.55\Bq,0,5.25,0.,0.75\Bq,0,5.25,0.,0
 .95\Bq,0,5.25,0.,1.15\Bq,0,5.25,0.,1.35\Bq,0,5.25,0.,1.55\Bq,0,5.25,0.
 ,1.75\Bq,0,5.25,0.,1.95\Bq,0,5.25,0.,2.15\Bq,0,5.25,0.,2.35\Bq,0,5.25,
 0.,2.55\Bq,0,5.25,0.,2.75\Bq,0,5.25,0.,2.95\Bq,0,5.25,0.,3.15\Bq,0,5.4
 5,0.,-2.85\Bq,0,5.45,0.,-2.65\Bq,0,5.45,0.,-2.45\Bq,0,5.45,0.,-2.25\Bq
 ,0,5.45,0.,-2.05\Bq,0,5.45,0.,-1.85\Bq,0,5.45,0.,-1.65\Bq,0,5.45,0.,-1
 .45\Bq,0,5.45,0.,-1.25\Bq,0,5.45,0.,-1.05\Bq,0,5.45,0.,-0.85\Bq,0,5.45
 ,0.,-0.65\Bq,0,5.45,0.,-0.45\Bq,0,5.45,0.,-0.25\Bq,0,5.45,0.,-0.05\Bq,
 0,5.45,0.,0.15\Bq,0,5.45,0.,0.35\Bq,0,5.45,0.,0.55\Bq,0,5.45,0.,0.75\B
 q,0,5.45,0.,0.95\Bq,0,5.45,0.,1.15\Bq,0,5.45,0.,1.35\Bq,0,5.45,0.,1.55
 \Bq,0,5.45,0.,1.75\Bq,0,5.45,0.,1.95\Bq,0,5.45,0.,2.15\Bq,0,5.45,0.,2.
 35\Bq,0,5.45,0.,2.55\Bq,0,5.45,0.,2.75\Bq,0,5.45,0.,2.95\Bq,0,5.45,0.,
 3.15\Bq,0,5.65,0.,-2.85\Bq,0,5.65,0.,-2.65\Bq,0,5.65,0.,-2.45\Bq,0,5.6
 5,0.,-2.25\Bq,0,5.65,0.,-2.05\Bq,0,5.65,0.,-1.85\Bq,0,5.65,0.,-1.65\Bq
 ,0,5.65,0.,-1.45\Bq,0,5.65,0.,-1.25\Bq,0,5.65,0.,-1.05\Bq,0,5.65,0.,-0
 .85\Bq,0,5.65,0.,-0.65\Bq,0,5.65,0.,-0.45\Bq,0,5.65,0.,-0.25\Bq,0,5.65
 ,0.,-0.05\Bq,0,5.65,0.,0.15\Bq,0,5.65,0.,0.35\Bq,0,5.65,0.,0.55\Bq,0,5
 .65,0.,0.75\Bq,0,5.65,0.,0.95\Bq,0,5.65,0.,1.15\Bq,0,5.65,0.,1.35\Bq,0
 ,5.65,0.,1.55\Bq,0,5.65,0.,1.75\Bq,0,5.65,0.,1.95\Bq,0,5.65,0.,2.15\Bq
 ,0,5.65,0.,2.35\Bq,0,5.65,0.,2.55\Bq,0,5.65,0.,2.75\Bq,0,5.65,0.,2.95\
 Bq,0,5.65,0.,3.15\Bq,0,5.85,0.,-2.85\Bq,0,5.85,0.,-2.65\Bq,0,5.85,0.,-
 2.45\Bq,0,5.85,0.,-2.25\Bq,0,5.85,0.,-2.05\Bq,0,5.85,0.,-1.85\Bq,0,5.8
 5,0.,-1.65\Bq,0,5.85,0.,-1.45\Bq,0,5.85,0.,-1.25\Bq,0,5.85,0.,-1.05\Bq
 ,0,5.85,0.,-0.85\Bq,0,5.85,0.,-0.65\Bq,0,5.85,0.,-0.45\Bq,0,5.85,0.,-0
 .25\Bq,0,5.85,0.,-0.05\Bq,0,5.85,0.,0.15\Bq,0,5.85,0.,0.35\Bq,0,5.85,0
 .,0.55\Bq,0,5.85,0.,0.75\Bq,0,5.85,0.,0.95\Bq,0,5.85,0.,1.15\Bq,0,5.85
 ,0.,1.35\Bq,0,5.85,0.,1.55\Bq,0,5.85,0.,1.75\Bq,0,5.85,0.,1.95\Bq,0,5.
 85,0.,2.15\Bq,0,5.85,0.,2.35\Bq,0,5.85,0.,2.55\Bq,0,5.85,0.,2.75\Bq,0,
 5.85,0.,2.95\Bq,0,5.85,0.,3.15\Bq,0,6.05,0.,-2.85\Bq,0,6.05,0.,-2.65\B
 q,0,6.05,0.,-2.45\Bq,0,6.05,0.,-2.25\Bq,0,6.05,0.,-2.05\Bq,0,6.05,0.,-
 1.85\Bq,0,6.05,0.,-1.65\Bq,0,6.05,0.,-1.45\Bq,0,6.05,0.,-1.25\Bq,0,6.0
 5,0.,-1.05\Bq,0,6.05,0.,-0.85\Bq,0,6.05,0.,-0.65\Bq,0,6.05,0.,-0.45\Bq
 ,0,6.05,0.,-0.25\Bq,0,6.05,0.,-0.05\Bq,0,6.05,0.,0.15\Bq,0,6.05,0.,0.3
 5\Bq,0,6.05,0.,0.55\Bq,0,6.05,0.,0.75\Bq,0,6.05,0.,0.95\Bq,0,6.05,0.,1
 .15\Bq,0,6.05,0.,1.35\Bq,0,6.05,0.,1.55\Bq,0,6.05,0.,1.75\Bq,0,6.05,0.
 ,1.95\Bq,0,6.05,0.,2.15\Bq,0,6.05,0.,2.35\Bq,0,6.05,0.,2.55\Bq,0,6.05,
 0.,2.75\Bq,0,6.05,0.,2.95\Bq,0,6.05,0.,3.15\Bq,0,6.25,0.,-2.85\Bq,0,6.
 25,0.,-2.65\Bq,0,6.25,0.,-2.45\Bq,0,6.25,0.,-2.25\Bq,0,6.25,0.,-2.05\B
 q,0,6.25,0.,-1.85\Bq,0,6.25,0.,-1.65\Bq,0,6.25,0.,-1.45\Bq,0,6.25,0.,-
 1.25\Bq,0,6.25,0.,-1.05\Bq,0,6.25,0.,-0.85\Bq,0,6.25,0.,-0.65\Bq,0,6.2
 5,0.,-0.45\Bq,0,6.25,0.,-0.25\Bq,0,6.25,0.,-0.05\Bq,0,6.25,0.,0.15\Bq,
 0,6.25,0.,0.35\Bq,0,6.25,0.,0.55\Bq,0,6.25,0.,0.75\Bq,0,6.25,0.,0.95\B
 q,0,6.25,0.,1.15\Bq,0,6.25,0.,1.35\Bq,0,6.25,0.,1.55\Bq,0,6.25,0.,1.75
 \Bq,0,6.25,0.,1.95\Bq,0,6.25,0.,2.15\Bq,0,6.25,0.,2.35\Bq,0,6.25,0.,2.
 55\Bq,0,6.25,0.,2.75\Bq,0,6.25,0.,2.95\Bq,0,6.25,0.,3.15\Bq,0,6.45,0.,
 -2.85\Bq,0,6.45,0.,-2.65\Bq,0,6.45,0.,-2.45\Bq,0,6.45,0.,-2.25\Bq,0,6.
 45,0.,-2.05\Bq,0,6.45,0.,-1.85\Bq,0,6.45,0.,-1.65\Bq,0,6.45,0.,-1.45\B
 q,0,6.45,0.,-1.25\Bq,0,6.45,0.,-1.05\Bq,0,6.45,0.,-0.85\Bq,0,6.45,0.,-
 0.65\Bq,0,6.45,0.,-0.45\Bq,0,6.45,0.,-0.25\Bq,0,6.45,0.,-0.05\Bq,0,6.4
 5,0.,0.15\Bq,0,6.45,0.,0.35\Bq,0,6.45,0.,0.55\Bq,0,6.45,0.,0.75\Bq,0,6
 .45,0.,0.95\Bq,0,6.45,0.,1.15\Bq,0,6.45,0.,1.35\Bq,0,6.45,0.,1.55\Bq,0
 ,6.45,0.,1.75\Bq,0,6.45,0.,1.95\Bq,0,6.45,0.,2.15\Bq,0,6.45,0.,2.35\Bq
 ,0,6.45,0.,2.55\Bq,0,6.45,0.,2.75\Bq,0,6.45,0.,2.95\Bq,0,6.45,0.,3.15\
 Bq,0,6.65,0.,-2.85\Bq,0,6.65,0.,-2.65\Bq,0,6.65,0.,-2.45\Bq,0,6.65,0.,
 -2.25\Bq,0,6.65,0.,-2.05\Bq,0,6.65,0.,-1.85\Bq,0,6.65,0.,-1.65\Bq,0,6.
 65,0.,-1.45\Bq,0,6.65,0.,-1.25\Bq,0,6.65,0.,-1.05\Bq,0,6.65,0.,-0.85\B
 q,0,6.65,0.,-0.65\Bq,0,6.65,0.,-0.45\Bq,0,6.65,0.,-0.25\Bq,0,6.65,0.,-
 0.05\Bq,0,6.65,0.,0.15\Bq,0,6.65,0.,0.35\Bq,0,6.65,0.,0.55\Bq,0,6.65,0
 .,0.75\Bq,0,6.65,0.,0.95\Bq,0,6.65,0.,1.15\Bq,0,6.65,0.,1.35\Bq,0,6.65
 ,0.,1.55\Bq,0,6.65,0.,1.75\Bq,0,6.65,0.,1.95\Bq,0,6.65,0.,2.15\Bq,0,6.
 65,0.,2.35\Bq,0,6.65,0.,2.55\Bq,0,6.65,0.,2.75\Bq,0,6.65,0.,2.95\Bq,0,
 6.65,0.,3.15\Bq,0,6.85,0.,-2.85\Bq,0,6.85,0.,-2.65\Bq,0,6.85,0.,-2.45\
 Bq,0,6.85,0.,-2.25\Bq,0,6.85,0.,-2.05\Bq,0,6.85,0.,-1.85\Bq,0,6.85,0.,
 -1.65\Bq,0,6.85,0.,-1.45\Bq,0,6.85,0.,-1.25\Bq,0,6.85,0.,-1.05\Bq,0,6.
 85,0.,-0.85\Bq,0,6.85,0.,-0.65\Bq,0,6.85,0.,-0.45\Bq,0,6.85,0.,-0.25\B
 q,0,6.85,0.,-0.05\Bq,0,6.85,0.,0.15\Bq,0,6.85,0.,0.35\Bq,0,6.85,0.,0.5
 5\Bq,0,6.85,0.,0.75\Bq,0,6.85,0.,0.95\Bq,0,6.85,0.,1.15\Bq,0,6.85,0.,1
 .35\Bq,0,6.85,0.,1.55\Bq,0,6.85,0.,1.75\Bq,0,6.85,0.,1.95\Bq,0,6.85,0.
 ,2.15\Bq,0,6.85,0.,2.35\Bq,0,6.85,0.,2.55\Bq,0,6.85,0.,2.75\Bq,0,6.85,
 0.,2.95\Bq,0,6.85,0.,3.15\Bq,0,7.05,0.,-2.85\Bq,0,7.05,0.,-2.65\Bq,0,7
 .05,0.,-2.45\Bq,0,7.05,0.,-2.25\Bq,0,7.05,0.,-2.05\Bq,0,7.05,0.,-1.85\
 Bq,0,7.05,0.,-1.65\Bq,0,7.05,0.,-1.45\Bq,0,7.05,0.,-1.25\Bq,0,7.05,0.,
 -1.05\Bq,0,7.05,0.,-0.85\Bq,0,7.05,0.,-0.65\Bq,0,7.05,0.,-0.45\Bq,0,7.
 05,0.,-0.25\Bq,0,7.05,0.,-0.05\Bq,0,7.05,0.,0.15\Bq,0,7.05,0.,0.35\Bq,
 0,7.05,0.,0.55\Bq,0,7.05,0.,0.75\Bq,0,7.05,0.,0.95\Bq,0,7.05,0.,1.15\B
 q,0,7.05,0.,1.35\Bq,0,7.05,0.,1.55\Bq,0,7.05,0.,1.75\Bq,0,7.05,0.,1.95
 \Bq,0,7.05,0.,2.15\Bq,0,7.05,0.,2.35\Bq,0,7.05,0.,2.55\Bq,0,7.05,0.,2.
 75\Bq,0,7.05,0.,2.95\Bq,0,7.05,0.,3.15\Bq,0,7.25,0.,-2.85\Bq,0,7.25,0.
 ,-2.65\Bq,0,7.25,0.,-2.45\Bq,0,7.25,0.,-2.25\Bq,0,7.25,0.,-2.05\Bq,0,7
 .25,0.,-1.85\Bq,0,7.25,0.,-1.65\Bq,0,7.25,0.,-1.45\Bq,0,7.25,0.,-1.25\
 Bq,0,7.25,0.,-1.05\Bq,0,7.25,0.,-0.85\Bq,0,7.25,0.,-0.65\Bq,0,7.25,0.,
 -0.45\Bq,0,7.25,0.,-0.25\Bq,0,7.25,0.,-0.05\Bq,0,7.25,0.,0.15\Bq,0,7.2
 5,0.,0.35\Bq,0,7.25,0.,0.55\Bq,0,7.25,0.,0.75\Bq,0,7.25,0.,0.95\Bq,0,7
 .25,0.,1.15\Bq,0,7.25,0.,1.35\Bq,0,7.25,0.,1.55\Bq,0,7.25,0.,1.75\Bq,0
 ,7.25,0.,1.95\Bq,0,7.25,0.,2.15\Bq,0,7.25,0.,2.35\Bq,0,7.25,0.,2.55\Bq
 ,0,7.25,0.,2.75\Bq,0,7.25,0.,2.95\Bq,0,7.25,0.,3.15\Bq,0,7.45,0.,-2.85
 \Bq,0,7.45,0.,-2.65\Bq,0,7.45,0.,-2.45\Bq,0,7.45,0.,-2.25\Bq,0,7.45,0.
 ,-2.05\Bq,0,7.45,0.,-1.85\Bq,0,7.45,0.,-1.65\Bq,0,7.45,0.,-1.45\Bq,0,7
 .45,0.,-1.25\Bq,0,7.45,0.,-1.05\Bq,0,7.45,0.,-0.85\Bq,0,7.45,0.,-0.65\
 Bq,0,7.45,0.,-0.45\Bq,0,7.45,0.,-0.25\Bq,0,7.45,0.,-0.05\Bq,0,7.45,0.,
 0.15\Bq,0,7.45,0.,0.35\Bq,0,7.45,0.,0.55\Bq,0,7.45,0.,0.75\Bq,0,7.45,0
 .,0.95\Bq,0,7.45,0.,1.15\Bq,0,7.45,0.,1.35\Bq,0,7.45,0.,1.55\Bq,0,7.45
 ,0.,1.75\Bq,0,7.45,0.,1.95\Bq,0,7.45,0.,2.15\Bq,0,7.45,0.,2.35\Bq,0,7.
 45,0.,2.55\Bq,0,7.45,0.,2.75\Bq,0,7.45,0.,2.95\Bq,0,7.45,0.,3.15\Bq,0,
 7.65,0.,-2.85\Bq,0,7.65,0.,-2.65\Bq,0,7.65,0.,-2.45\Bq,0,7.65,0.,-2.25
 \Bq,0,7.65,0.,-2.05\Bq,0,7.65,0.,-1.85\Bq,0,7.65,0.,-1.65\Bq,0,7.65,0.
 ,-1.45\Bq,0,7.65,0.,-1.25\Bq,0,7.65,0.,-1.05\Bq,0,7.65,0.,-0.85\Bq,0,7
 .65,0.,-0.65\Bq,0,7.65,0.,-0.45\Bq,0,7.65,0.,-0.25\Bq,0,7.65,0.,-0.05\
 Bq,0,7.65,0.,0.15\Bq,0,7.65,0.,0.35\Bq,0,7.65,0.,0.55\Bq,0,7.65,0.,0.7
 5\Bq,0,7.65,0.,0.95\Bq,0,7.65,0.,1.15\Bq,0,7.65,0.,1.35\Bq,0,7.65,0.,1
 .55\Bq,0,7.65,0.,1.75\Bq,0,7.65,0.,1.95\Bq,0,7.65,0.,2.15\Bq,0,7.65,0.
 ,2.35\Bq,0,7.65,0.,2.55\Bq,0,7.65,0.,2.75\Bq,0,7.65,0.,2.95\Bq,0,7.65,
 0.,3.15\Bq,0,7.85,0.,-2.85\Bq,0,7.85,0.,-2.65\Bq,0,7.85,0.,-2.45\Bq,0,
 7.85,0.,-2.25\Bq,0,7.85,0.,-2.05\Bq,0,7.85,0.,-1.85\Bq,0,7.85,0.,-1.65
 \Bq,0,7.85,0.,-1.45\Bq,0,7.85,0.,-1.25\Bq,0,7.85,0.,-1.05\Bq,0,7.85,0.
 ,-0.85\Bq,0,7.85,0.,-0.65\Bq,0,7.85,0.,-0.45\Bq,0,7.85,0.,-0.25\Bq,0,7
 .85,0.,-0.05\Bq,0,7.85,0.,0.15\Bq,0,7.85,0.,0.35\Bq,0,7.85,0.,0.55\Bq,
 0,7.85,0.,0.75\Bq,0,7.85,0.,0.95\Bq,0,7.85,0.,1.15\Bq,0,7.85,0.,1.35\B
 q,0,7.85,0.,1.55\Bq,0,7.85,0.,1.75\Bq,0,7.85,0.,1.95\Bq,0,7.85,0.,2.15
 \Bq,0,7.85,0.,2.35\Bq,0,7.85,0.,2.55\Bq,0,7.85,0.,2.75\Bq,0,7.85,0.,2.
 95\Bq,0,7.85,0.,3.15\Bq,0,8.05,0.,-2.85\Bq,0,8.05,0.,-2.65\Bq,0,8.05,0
 .,-2.45\Bq,0,8.05,0.,-2.25\Bq,0,8.05,0.,-2.05\Bq,0,8.05,0.,-1.85\Bq,0,
 8.05,0.,-1.65\Bq,0,8.05,0.,-1.45\Bq,0,8.05,0.,-1.25\Bq,0,8.05,0.,-1.05
 \Bq,0,8.05,0.,-0.85\Bq,0,8.05,0.,-0.65\Bq,0,8.05,0.,-0.45\Bq,0,8.05,0.
 ,-0.25\Bq,0,8.05,0.,-0.05\Bq,0,8.05,0.,0.15\Bq,0,8.05,0.,0.35\Bq,0,8.0
 5,0.,0.55\Bq,0,8.05,0.,0.75\Bq,0,8.05,0.,0.95\Bq,0,8.05,0.,1.15\Bq,0,8
 .05,0.,1.35\Bq,0,8.05,0.,1.55\Bq,0,8.05,0.,1.75\Bq,0,8.05,0.,1.95\Bq,0
 ,8.05,0.,2.15\Bq,0,8.05,0.,2.35\Bq,0,8.05,0.,2.55\Bq,0,8.05,0.,2.75\Bq
 ,0,8.05,0.,2.95\Bq,0,8.05,0.,3.15\Bq,0,8.25,0.,-2.85\Bq,0,8.25,0.,-2.6
 5\Bq,0,8.25,0.,-2.45\Bq,0,8.25,0.,-2.25\Bq,0,8.25,0.,-2.05\Bq,0,8.25,0
 .,-1.85\Bq,0,8.25,0.,-1.65\Bq,0,8.25,0.,-1.45\Bq,0,8.25,0.,-1.25\Bq,0,
 8.25,0.,-1.05\Bq,0,8.25,0.,-0.85\Bq,0,8.25,0.,-0.65\Bq,0,8.25,0.,-0.45
 \Bq,0,8.25,0.,-0.25\Bq,0,8.25,0.,-0.05\Bq,0,8.25,0.,0.15\Bq,0,8.25,0.,
 0.35\Bq,0,8.25,0.,0.55\Bq,0,8.25,0.,0.75\Bq,0,8.25,0.,0.95\Bq,0,8.25,0
 .,1.15\Bq,0,8.25,0.,1.35\Bq,0,8.25,0.,1.55\Bq,0,8.25,0.,1.75\Bq,0,8.25
 ,0.,1.95\Bq,0,8.25,0.,2.15\Bq,0,8.25,0.,2.35\Bq,0,8.25,0.,2.55\Bq,0,8.
 25,0.,2.75\Bq,0,8.25,0.,2.95\Bq,0,8.25,0.,3.15\Bq,0,8.45,0.,-2.85\Bq,0
 ,8.45,0.,-2.65\Bq,0,8.45,0.,-2.45\Bq,0,8.45,0.,-2.25\Bq,0,8.45,0.,-2.0
 5\Bq,0,8.45,0.,-1.85\Bq,0,8.45,0.,-1.65\Bq,0,8.45,0.,-1.45\Bq,0,8.45,0
 .,-1.25\Bq,0,8.45,0.,-1.05\Bq,0,8.45,0.,-0.85\Bq,0,8.45,0.,-0.65\Bq,0,
 8.45,0.,-0.45\Bq,0,8.45,0.,-0.25\Bq,0,8.45,0.,-0.05\Bq,0,8.45,0.,0.15\
 Bq,0,8.45,0.,0.35\Bq,0,8.45,0.,0.55\Bq,0,8.45,0.,0.75\Bq,0,8.45,0.,0.9
 5\Bq,0,8.45,0.,1.15\Bq,0,8.45,0.,1.35\Bq,0,8.45,0.,1.55\Bq,0,8.45,0.,1
 .75\Bq,0,8.45,0.,1.95\Bq,0,8.45,0.,2.15\Bq,0,8.45,0.,2.35\Bq,0,8.45,0.
 ,2.55\Bq,0,8.45,0.,2.75\Bq,0,8.45,0.,2.95\Bq,0,8.45,0.,3.15\Bq,0,8.65,
 0.,-2.85\Bq,0,8.65,0.,-2.65\Bq,0,8.65,0.,-2.45\Bq,0,8.65,0.,-2.25\Bq,0
 ,8.65,0.,-2.05\Bq,0,8.65,0.,-1.85\Bq,0,8.65,0.,-1.65\Bq,0,8.65,0.,-1.4
 5\Bq,0,8.65,0.,-1.25\Bq,0,8.65,0.,-1.05\Bq,0,8.65,0.,-0.85\Bq,0,8.65,0
 .,-0.65\Bq,0,8.65,0.,-0.45\Bq,0,8.65,0.,-0.25\Bq,0,8.65,0.,-0.05\Bq,0,
 8.65,0.,0.15\Bq,0,8.65,0.,0.35\Bq,0,8.65,0.,0.55\Bq,0,8.65,0.,0.75\Bq,
 0,8.65,0.,0.95\Bq,0,8.65,0.,1.15\Bq,0,8.65,0.,1.35\Bq,0,8.65,0.,1.55\B
 q,0,8.65,0.,1.75\Bq,0,8.65,0.,1.95\Bq,0,8.65,0.,2.15\Bq,0,8.65,0.,2.35
 \Bq,0,8.65,0.,2.55\Bq,0,8.65,0.,2.75\Bq,0,8.65,0.,2.95\Bq,0,8.65,0.,3.
 15\Bq,0,8.85,0.,-2.85\Bq,0,8.85,0.,-2.65\Bq,0,8.85,0.,-2.45\Bq,0,8.85,
 0.,-2.25\Bq,0,8.85,0.,-2.05\Bq,0,8.85,0.,-1.85\Bq,0,8.85,0.,-1.65\Bq,0
 ,8.85,0.,-1.45\Bq,0,8.85,0.,-1.25\Bq,0,8.85,0.,-1.05\Bq,0,8.85,0.,-0.8
 5\Bq,0,8.85,0.,-0.65\Bq,0,8.85,0.,-0.45\Bq,0,8.85,0.,-0.25\Bq,0,8.85,0
 .,-0.05\Bq,0,8.85,0.,0.15\Bq,0,8.85,0.,0.35\Bq,0,8.85,0.,0.55\Bq,0,8.8
 5,0.,0.75\Bq,0,8.85,0.,0.95\Bq,0,8.85,0.,1.15\Bq,0,8.85,0.,1.35\Bq,0,8
 .85,0.,1.55\Bq,0,8.85,0.,1.75\Bq,0,8.85,0.,1.95\Bq,0,8.85,0.,2.15\Bq,0
 ,8.85,0.,2.35\Bq,0,8.85,0.,2.55\Bq,0,8.85,0.,2.75\Bq,0,8.85,0.,2.95\Bq
 ,0,8.85,0.,3.15\\Version=ES64L-G16RevB.01\HF=-2148.3202304\RMSD=3.961e
 -09\Dipole=-0.0000069,0.0000067,-1.0712514\Quadrupole=4.024317,4.02374
 65,-8.0480636,-0.0000148,0.000003,-0.0000035\PG=C01 [X(C56H24)]\\@


 FORGIVE MY NONSENSE AS I ALSO FORGIVE THOSE WHO THINK THEY TALK SENSE

                                                       -- ROBERT FROST
 Job cpu time:       0 days  0 hours 52 minutes  9.9 seconds.
 Elapsed time:       0 days  0 hours  7 minutes 34.9 seconds.
 File lengths (MBytes):  RWF=    491 Int=      0 D2E=      0 Chk=     68 Scr=      1
 Normal termination of Gaussian 16 at Mon Mar 20 12:52:36 2023.
