 Entering Gaussian System, Link 0=g16
 Initial command:
 /home/wangzhe/g16/l1.exe "/home/wangzhe/g16/Scratch/Gau-100766.inp" -scrdir="/home/wangzhe/g16/Scratch/"
 Default is to use a total of  16 processors:
                               16 via shared-memory
                                1 via Linda
 Entering Link 1 = /home/wangzhe/g16/l1.exe PID=    100769.
  
 Copyright (c) 1988-2017, Gaussian, Inc.  All Rights Reserved.
  
 This is part of the Gaussian(R) 16 program.  It is based on
 the Gaussian(R) 09 system (copyright 2009, Gaussian, Inc.),
 the Gaussian(R) 03 system (copyright 2003, Gaussian, Inc.),
 the Gaussian(R) 98 system (copyright 1998, Gaussian, Inc.),
 the Gaussian(R) 94 system (copyright 1995, Gaussian, Inc.),
 the Gaussian 92(TM) system (copyright 1992, Gaussian, Inc.),
 the Gaussian 90(TM) system (copyright 1990, Gaussian, Inc.),
 the Gaussian 88(TM) system (copyright 1988, Gaussian, Inc.),
 the Gaussian 86(TM) system (copyright 1986, Carnegie Mellon
 University), and the Gaussian 82(TM) system (copyright 1983,
 Carnegie Mellon University). Gaussian is a federally registered
 trademark of Gaussian, Inc.
  
 This software contains proprietary and confidential information,
 including trade secrets, belonging to Gaussian, Inc.
  
 This software is provided under written license and may be
 used, copied, transmitted, or stored only in accord with that
 written license.
  
 The following legend is applicable only to US Government
 contracts under FAR:
  
                    RESTRICTED RIGHTS LEGEND
  
 Use, reproduction and disclosure by the US Government is
 subject to restrictions as set forth in subparagraphs (a)
 and (c) of the Commercial Computer Software - Restricted
 Rights clause in FAR 52.227-19.
  
 Gaussian, Inc.
 340 Quinnipiac St., Bldg. 40, Wallingford CT 06492
  
  
 ---------------------------------------------------------------
 Warning -- This program may not be used in any manner that
 competes with the business of Gaussian, Inc. or will provide
 assistance to any competitor of Gaussian, Inc.  The licensee
 of this program is prohibited from giving any competitor of
 Gaussian, Inc. access to this program.  By using this program,
 the user acknowledges that Gaussian, Inc. is engaged in the
 business of creating and licensing software in the field of
 computational chemistry and represents and warrants to the
 licensee that it is not a competitor of Gaussian, Inc. and that
 it will not use this program in any manner prohibited above.
 ---------------------------------------------------------------
  

 Cite this work as:
 Gaussian 16, Revision B.01,
 M. J. Frisch, G. W. Trucks, H. B. Schlegel, G. E. Scuseria, 
 M. A. Robb, J. R. Cheeseman, G. Scalmani, V. Barone, 
 G. A. Petersson, H. Nakatsuji, X. Li, M. Caricato, A. V. Marenich, 
 J. Bloino, B. G. Janesko, R. Gomperts, B. Mennucci, H. P. Hratchian, 
 J. V. Ortiz, A. F. Izmaylov, J. L. Sonnenberg, D. Williams-Young, 
 F. Ding, F. Lipparini, F. Egidi, J. Goings, B. Peng, A. Petrone, 
 T. Henderson, D. Ranasinghe, V. G. Zakrzewski, J. Gao, N. Rega, 
 G. Zheng, W. Liang, M. Hada, M. Ehara, K. Toyota, R. Fukuda, 
 J. Hasegawa, M. Ishida, T. Nakajima, Y. Honda, O. Kitao, H. Nakai, 
 T. Vreven, K. Throssell, J. A. Montgomery, Jr., J. E. Peralta, 
 F. Ogliaro, M. J. Bearpark, J. J. Heyd, E. N. Brothers, K. N. Kudin, 
 V. N. Staroverov, T. A. Keith, R. Kobayashi, J. Normand, 
 K. Raghavachari, A. P. Rendell, J. C. Burant, S. S. Iyengar, 
 J. Tomasi, M. Cossi, J. M. Millam, M. Klene, C. Adamo, R. Cammi, 
 J. W. Ochterski, R. L. Martin, K. Morokuma, O. Farkas, 
 J. B. Foresman, and D. J. Fox, Gaussian, Inc., Wallingford CT, 2016.
 
 ******************************************
 Gaussian 16:  ES64L-G16RevB.01 20-Dec-2017
                15-Mar-2023 
 ******************************************
 %nprocshared=8
 Will use up to    8 processors via shared memory.
 %mem=10gb
 %chk=3_phenylene_NICS_Scan.chk
 --------------------------------------------------
 #p nmr=giao ub3lyp/6-311+g(2d,p) geom=connectivity
 --------------------------------------------------
 1/38=1,57=2,172=1/1;
 2/12=2,17=6,18=5,40=1/2;
 3/5=4,6=6,7=112,11=2,25=1,30=1,74=-5,116=2/1,2,3,8;
 4//1;
 5/5=2,38=5/2;
 8/6=1,10=90,11=11/1;
 10/13=100,45=16/2;
 6/7=2,8=2,9=2,10=2,28=1/1;
 99/9=1/99;
 Leave Link    1 at Wed Mar 15 11:15:37 2023, MaxMem=  1342177280 cpu:               0.4 elap:               0.0
 (Enter /home/wangzhe/g16/l101.exe)
 --------------------------
 File Created by py.Aroma 3
 --------------------------
 Symbolic Z-matrix:
 Charge =  0 Multiplicity = 3
 H                    -0.12073   4.58672   0. 
 C                     0.79041   3.99829   0. 
 C                     3.23826   2.47508   0. 
 C                     0.80373   2.63296   0. 
 C                     2.06446   4.62566   0. 
 C                     3.23826   3.89523   0. 
 C                     2.00744   1.8839    0. 
 H                     2.1168    5.70984   0. 
 H                     4.18784   4.42106   0. 
 H                     4.16862   1.91752   0. 
 C                     0.00873   1.34989   0. 
 C                    -0.00873  -1.34989   0. 
 C                    -1.26003   0.78419   0. 
 C                     1.20733   0.60397   0. 
 C                     1.26003  -0.78419   0. 
 C                    -1.20733  -0.60397   0. 
 H                    -2.18016   1.35694   0. 
 H                     2.18016  -1.35694   0. 
 C                    -0.80373  -2.63296   0. 
 C                    -3.23826  -3.89523   0. 
 C                    -2.00744  -1.8839    0. 
 C                    -0.79041  -3.99829   0. 
 C                    -2.06446  -4.62566   0. 
 C                    -3.23826  -2.47508   0. 
 H                     0.12073  -4.58672   0. 
 H                    -2.1168   -5.70984   0. 
 H                    -4.16862  -1.91752   0. 
 H                    -4.18784  -4.42106   0. 
 Bq                   -2.65136  -4.26045   1. 
 Bq                   -2.54569  -4.09064   1. 
 Bq                   -2.44003  -3.92083   1. 
 Bq                   -2.33436  -3.75102   1. 
 Bq                   -2.2287   -3.58121   1. 
 Bq                   -2.12303  -3.4114    1. 
 Bq                   -2.01737  -3.2416    1. 
 Bq                   -1.9117   -3.07179   1. 
 Bq                   -1.80604  -2.90198   1. 
 Bq                   -1.70037  -2.73217   1. 
 Bq                   -1.59471  -2.56236   1. 
 Bq                   -1.48905  -2.39255   1. 
 Bq                   -1.38338  -2.22275   1. 
 Bq                   -1.2777   -2.05295   1. 
 Bq                   -1.17202  -1.88315   1. 
 Bq                   -1.06635  -1.71334   1. 
 Bq                   -0.96067  -1.54354   1. 
 Bq                   -0.85499  -1.37374   1. 
 Bq                   -0.74931  -1.20394   1. 
 Bq                   -0.64364  -1.03414   1. 
 Bq                   -0.53796  -0.86434   1. 
 Bq                   -0.43228  -0.69454   1. 
 Bq                   -0.3266   -0.52474   1. 
 Bq                   -0.22091  -0.35495   1. 
 Bq                   -0.11523  -0.18515   1. 
 Bq                   -0.00955  -0.01535   1. 
 Bq                    0.09613   0.15445   1. 
 Bq                    0.20181   0.32425   1. 
 Bq                    0.30749   0.49405   1. 
 Bq                    0.41317   0.66385   1. 
 Bq                    0.51885   0.83364   1. 
 Bq                    0.62453   1.00344   1. 
 Bq                    0.73021   1.17324   1. 
 Bq                    0.83589   1.34305   1. 
 Bq                    0.94156   1.51285   1. 
 Bq                    1.04724   1.68265   1. 
 Bq                    1.15292   1.85245   1. 
 Bq                    1.2586    2.02225   1. 
 Bq                    1.36427   2.19205   1. 
 Bq                    1.46994   2.36186   1. 
 Bq                    1.57561   2.53166   1. 
 Bq                    1.68127   2.70147   1. 
 Bq                    1.78694   2.87128   1. 
 Bq                    1.8926    3.04109   1. 
 Bq                    1.99827   3.2109    1. 
 Bq                    2.10393   3.38071   1. 
 Bq                    2.2096    3.55051   1. 
 Bq                    2.31526   3.72032   1. 
 Bq                    2.42093   3.89013   1. 
 Bq                    2.52659   4.05994   1. 
 Bq                    2.63226   4.22975   1. 
 
 ITRead=  0  0  0  0  0  0  0  0  0  0  0  0  0  0  0  0  0  0  0  0
 ITRead=  0  0  0  0  0  0  0  0  0  0  0  0  0  0  0  0  0  0  0  0
 ITRead=  0  0  0  0  0  0  0  0  0  0  0  0  0  0  0  0  0  0  0  0
 ITRead=  0  0  0  0  0  0  0  0  0  0  0  0  0  0  0  0  0  0  0
 MicOpt= -1 -1 -1 -1 -1 -1 -1 -1 -1 -1 -1 -1 -1 -1 -1 -1 -1 -1 -1 -1
 MicOpt= -1 -1 -1 -1 -1 -1 -1 -1 -1 -1 -1 -1 -1 -1 -1 -1 -1 -1 -1 -1
 MicOpt= -1 -1 -1 -1 -1 -1 -1 -1 -1 -1 -1 -1 -1 -1 -1 -1 -1 -1 -1 -1
 MicOpt= -1 -1 -1 -1 -1 -1 -1 -1 -1 -1 -1 -1 -1 -1 -1 -1 -1 -1 -1
 NAtoms=     79 NQM=       79 NQMF=       0 NMMI=      0 NMMIF=      0
                NMic=       0 NMicF=      0.
                    Isotopes and Nuclear Properties:
 (Nuclear quadrupole moments (NQMom) in fm**2, nuclear magnetic moments (NMagM)
  in nuclear magnetons)

  Atom         1           2           3           4           5           6           7           8           9          10
 IAtWgt=           1          12          12          12          12          12          12           1           1           1
 AtmWgt=   1.0078250  12.0000000  12.0000000  12.0000000  12.0000000  12.0000000  12.0000000   1.0078250   1.0078250   1.0078250
 NucSpn=           1           0           0           0           0           0           0           1           1           1
 AtZEff=  -0.0000000  -0.0000000  -0.0000000  -0.0000000  -0.0000000  -0.0000000  -0.0000000  -0.0000000  -0.0000000  -0.0000000
 NQMom=    0.0000000   0.0000000   0.0000000   0.0000000   0.0000000   0.0000000   0.0000000   0.0000000   0.0000000   0.0000000
 NMagM=    2.7928460   0.0000000   0.0000000   0.0000000   0.0000000   0.0000000   0.0000000   2.7928460   2.7928460   2.7928460
 AtZNuc=   1.0000000   6.0000000   6.0000000   6.0000000   6.0000000   6.0000000   6.0000000   1.0000000   1.0000000   1.0000000

  Atom        11          12          13          14          15          16          17          18          19          20
 IAtWgt=          12          12          12          12          12          12           1           1          12          12
 AtmWgt=  12.0000000  12.0000000  12.0000000  12.0000000  12.0000000  12.0000000   1.0078250   1.0078250  12.0000000  12.0000000
 NucSpn=           0           0           0           0           0           0           1           1           0           0
 AtZEff=  -0.0000000  -0.0000000  -0.0000000  -0.0000000  -0.0000000  -0.0000000  -0.0000000  -0.0000000  -0.0000000  -0.0000000
 NQMom=    0.0000000   0.0000000   0.0000000   0.0000000   0.0000000   0.0000000   0.0000000   0.0000000   0.0000000   0.0000000
 NMagM=    0.0000000   0.0000000   0.0000000   0.0000000   0.0000000   0.0000000   2.7928460   2.7928460   0.0000000   0.0000000
 AtZNuc=   6.0000000   6.0000000   6.0000000   6.0000000   6.0000000   6.0000000   1.0000000   1.0000000   6.0000000   6.0000000

  Atom        21          22          23          24          25          26          27          28          29          30
 IAtWgt=          12          12          12          12           1           1           1           1           0           0
 AtmWgt=  12.0000000  12.0000000  12.0000000  12.0000000   1.0078250   1.0078250   1.0078250   1.0078250   0.0000000   0.0000000
 NucSpn=           0           0           0           0           1           1           1           1           0           0
 AtZEff=  -0.0000000  -0.0000000  -0.0000000  -0.0000000  -0.0000000  -0.0000000  -0.0000000  -0.0000000  -0.0000000  -0.0000000
 NQMom=    0.0000000   0.0000000   0.0000000   0.0000000   0.0000000   0.0000000   0.0000000   0.0000000   0.0000000   0.0000000
 NMagM=    0.0000000   0.0000000   0.0000000   0.0000000   2.7928460   2.7928460   2.7928460   2.7928460   0.0000000   0.0000000
 AtZNuc=   6.0000000   6.0000000   6.0000000   6.0000000   1.0000000   1.0000000   1.0000000   1.0000000   0.0000000   0.0000000

  Atom        31          32          33          34          35          36          37          38          39          40
 IAtWgt=           0           0           0           0           0           0           0           0           0           0
 AtmWgt=   0.0000000   0.0000000   0.0000000   0.0000000   0.0000000   0.0000000   0.0000000   0.0000000   0.0000000   0.0000000
 NucSpn=           0           0           0           0           0           0           0           0           0           0
 AtZEff=  -0.0000000  -0.0000000  -0.0000000  -0.0000000  -0.0000000  -0.0000000  -0.0000000  -0.0000000  -0.0000000  -0.0000000
 NQMom=    0.0000000   0.0000000   0.0000000   0.0000000   0.0000000   0.0000000   0.0000000   0.0000000   0.0000000   0.0000000
 NMagM=    0.0000000   0.0000000   0.0000000   0.0000000   0.0000000   0.0000000   0.0000000   0.0000000   0.0000000   0.0000000
 AtZNuc=   0.0000000   0.0000000   0.0000000   0.0000000   0.0000000   0.0000000   0.0000000   0.0000000   0.0000000   0.0000000

  Atom        41          42          43          44          45          46          47          48          49          50
 IAtWgt=           0           0           0           0           0           0           0           0           0           0
 AtmWgt=   0.0000000   0.0000000   0.0000000   0.0000000   0.0000000   0.0000000   0.0000000   0.0000000   0.0000000   0.0000000
 NucSpn=           0           0           0           0           0           0           0           0           0           0
 AtZEff=  -0.0000000  -0.0000000  -0.0000000  -0.0000000  -0.0000000  -0.0000000  -0.0000000  -0.0000000  -0.0000000  -0.0000000
 NQMom=    0.0000000   0.0000000   0.0000000   0.0000000   0.0000000   0.0000000   0.0000000   0.0000000   0.0000000   0.0000000
 NMagM=    0.0000000   0.0000000   0.0000000   0.0000000   0.0000000   0.0000000   0.0000000   0.0000000   0.0000000   0.0000000
 AtZNuc=   0.0000000   0.0000000   0.0000000   0.0000000   0.0000000   0.0000000   0.0000000   0.0000000   0.0000000   0.0000000

  Atom        51          52          53          54          55          56          57          58          59          60
 IAtWgt=           0           0           0           0           0           0           0           0           0           0
 AtmWgt=   0.0000000   0.0000000   0.0000000   0.0000000   0.0000000   0.0000000   0.0000000   0.0000000   0.0000000   0.0000000
 NucSpn=           0           0           0           0           0           0           0           0           0           0
 AtZEff=  -0.0000000  -0.0000000  -0.0000000  -0.0000000  -0.0000000  -0.0000000  -0.0000000  -0.0000000  -0.0000000  -0.0000000
 NQMom=    0.0000000   0.0000000   0.0000000   0.0000000   0.0000000   0.0000000   0.0000000   0.0000000   0.0000000   0.0000000
 NMagM=    0.0000000   0.0000000   0.0000000   0.0000000   0.0000000   0.0000000   0.0000000   0.0000000   0.0000000   0.0000000
 AtZNuc=   0.0000000   0.0000000   0.0000000   0.0000000   0.0000000   0.0000000   0.0000000   0.0000000   0.0000000   0.0000000

  Atom        61          62          63          64          65          66          67          68          69          70
 IAtWgt=           0           0           0           0           0           0           0           0           0           0
 AtmWgt=   0.0000000   0.0000000   0.0000000   0.0000000   0.0000000   0.0000000   0.0000000   0.0000000   0.0000000   0.0000000
 NucSpn=           0           0           0           0           0           0           0           0           0           0
 AtZEff=  -0.0000000  -0.0000000  -0.0000000  -0.0000000  -0.0000000  -0.0000000  -0.0000000  -0.0000000  -0.0000000  -0.0000000
 NQMom=    0.0000000   0.0000000   0.0000000   0.0000000   0.0000000   0.0000000   0.0000000   0.0000000   0.0000000   0.0000000
 NMagM=    0.0000000   0.0000000   0.0000000   0.0000000   0.0000000   0.0000000   0.0000000   0.0000000   0.0000000   0.0000000
 AtZNuc=   0.0000000   0.0000000   0.0000000   0.0000000   0.0000000   0.0000000   0.0000000   0.0000000   0.0000000   0.0000000

  Atom        71          72          73          74          75          76          77          78          79
 IAtWgt=           0           0           0           0           0           0           0           0           0
 AtmWgt=   0.0000000   0.0000000   0.0000000   0.0000000   0.0000000   0.0000000   0.0000000   0.0000000   0.0000000
 NucSpn=           0           0           0           0           0           0           0           0           0
 AtZEff=  -0.0000000  -0.0000000  -0.0000000  -0.0000000  -0.0000000  -0.0000000  -0.0000000  -0.0000000  -0.0000000
 NQMom=    0.0000000   0.0000000   0.0000000   0.0000000   0.0000000   0.0000000   0.0000000   0.0000000   0.0000000
 NMagM=    0.0000000   0.0000000   0.0000000   0.0000000   0.0000000   0.0000000   0.0000000   0.0000000   0.0000000
 AtZNuc=   0.0000000   0.0000000   0.0000000   0.0000000   0.0000000   0.0000000   0.0000000   0.0000000   0.0000000
 Leave Link  101 at Wed Mar 15 11:15:37 2023, MaxMem=  1342177280 cpu:               0.8 elap:               0.1
 (Enter /home/wangzhe/g16/l202.exe)
 Symmetry turned off:
 Cannot cope with ghost atoms or with translation vectors.
 Stoichiometry    C18H10(3)
 Framework group  C1[X(C18H10)]
 NumDoF:  NAt=    28 NAtoms=    79
 Deg. of freedom     0
 Full point group                 C1      NOp   1
                          Input orientation:                          
 ---------------------------------------------------------------------
 Center     Atomic      Atomic             Coordinates (Angstroms)
 Number     Number       Type             X           Y           Z
 ---------------------------------------------------------------------
      1          1           0       -0.120733    4.586719    0.000000
      2          6           0        0.790413    3.998293    0.000000
      3          6           0        3.238257    2.475076    0.000000
      4          6           0        0.803730    2.632959    0.000000
      5          6           0        2.064461    4.625664    0.000000
      6          6           0        3.238257    3.895229    0.000000
      7          6           0        2.007437    1.883896    0.000000
      8          1           0        2.116800    5.709840    0.000000
      9          1           0        4.187840    4.421064    0.000000
     10          1           0        4.168621    1.917515    0.000000
     11          6           0        0.008734    1.349887    0.000000
     12          6           0       -0.008734   -1.349887    0.000000
     13          6           0       -1.260025    0.784186    0.000000
     14          6           0        1.207330    0.603974    0.000000
     15          6           0        1.260025   -0.784186    0.000000
     16          6           0       -1.207330   -0.603974    0.000000
     17          1           0       -2.180164    1.356936    0.000000
     18          1           0        2.180164   -1.356936    0.000000
     19          6           0       -0.803730   -2.632959    0.000000
     20          6           0       -3.238257   -3.895229    0.000000
     21          6           0       -2.007437   -1.883896    0.000000
     22          6           0       -0.790413   -3.998293    0.000000
     23          6           0       -2.064461   -4.625664    0.000000
     24          6           0       -3.238257   -2.475076    0.000000
     25          1           0        0.120733   -4.586719    0.000000
     26          1           0       -2.116800   -5.709840    0.000000
     27          1           0       -4.168621   -1.917515    0.000000
     28          1           0       -4.187840   -4.421064    0.000000
     29          0           0       -2.651359   -4.260446    1.000000
     30          0           0       -2.545694   -4.090638    1.000000
     31          0           0       -2.440029   -3.920830    1.000000
     32          0           0       -2.334364   -3.751021    1.000000
     33          0           0       -2.228699   -3.581213    1.000000
     34          0           0       -2.123034   -3.411404    1.000000
     35          0           0       -2.017369   -3.241596    1.000000
     36          0           0       -1.911704   -3.071787    1.000000
     37          0           0       -1.806039   -2.901979    1.000000
     38          0           0       -1.700374   -2.732170    1.000000
     39          0           0       -1.594709   -2.562362    1.000000
     40          0           0       -1.489045   -2.392553    1.000000
     41          0           0       -1.383377   -2.222746    1.000000
     42          0           0       -1.277700   -2.052946    1.000000
     43          0           0       -1.172023   -1.883145    1.000000
     44          0           0       -1.066346   -1.713344    1.000000
     45          0           0       -0.960668   -1.543543    1.000000
     46          0           0       -0.854991   -1.373742    1.000000
     47          0           0       -0.749314   -1.203941    1.000000
     48          0           0       -0.643637   -1.034140    1.000000
     49          0           0       -0.537957   -0.864341    1.000000
     50          0           0       -0.432276   -0.694542    1.000000
     51          0           0       -0.326595   -0.524744    1.000000
     52          0           0       -0.220914   -0.354945    1.000000
     53          0           0       -0.115234   -0.185147    1.000000
     54          0           0       -0.009553   -0.015348    1.000000
     55          0           0        0.096128    0.154450    1.000000
     56          0           0        0.201809    0.324249    1.000000
     57          0           0        0.307490    0.494047    1.000000
     58          0           0        0.413171    0.663846    1.000000
     59          0           0        0.518852    0.833644    1.000000
     60          0           0        0.624532    1.003443    1.000000
     61          0           0        0.730210    1.173244    1.000000
     62          0           0        0.835887    1.343045    1.000000
     63          0           0        0.941564    1.512846    1.000000
     64          0           0        1.047241    1.682647    1.000000
     65          0           0        1.152918    1.852448    1.000000
     66          0           0        1.258595    2.022249    1.000000
     67          0           0        1.364272    2.192049    1.000000
     68          0           0        1.469942    2.361855    1.000000
     69          0           0        1.575607    2.531663    1.000000
     70          0           0        1.681272    2.701472    1.000000
     71          0           0        1.786937    2.871280    1.000000
     72          0           0        1.892602    3.041089    1.000000
     73          0           0        1.998267    3.210897    1.000000
     74          0           0        2.103932    3.380706    1.000000
     75          0           0        2.209597    3.550514    1.000000
     76          0           0        2.315262    3.720323    1.000000
     77          0           0        2.420927    3.890131    1.000000
     78          0           0        2.526592    4.059940    1.000000
     79          0           0        2.632257    4.229748    1.000000
 ---------------------------------------------------------------------
 Rotational constants (GHZ):           1.8815854           0.2011723           0.1817412
 Leave Link  202 at Wed Mar 15 11:15:37 2023, MaxMem=  1342177280 cpu:               0.0 elap:               0.0
 (Enter /home/wangzhe/g16/l301.exe)
 Standard basis: 6-311+G(2d,p) (5D, 7F)
 Warning:  center  29 has no basis functions!
 Warning:  center  30 has no basis functions!
 Warning:  center  31 has no basis functions!
 Warning:  center  32 has no basis functions!
 Warning:  center  33 has no basis functions!
 Warning:  center  34 has no basis functions!
 Warning:  center  35 has no basis functions!
 Warning:  center  36 has no basis functions!
 Warning:  center  37 has no basis functions!
 Warning:  center  38 has no basis functions!
 Warning:  center  39 has no basis functions!
 Warning:  center  40 has no basis functions!
 Warning:  center  41 has no basis functions!
 Warning:  center  42 has no basis functions!
 Warning:  center  43 has no basis functions!
 Warning:  center  44 has no basis functions!
 Warning:  center  45 has no basis functions!
 Warning:  center  46 has no basis functions!
 Warning:  center  47 has no basis functions!
 Warning:  center  48 has no basis functions!
 Warning:  center  49 has no basis functions!
 Warning:  center  50 has no basis functions!
 Warning:  center  51 has no basis functions!
 Warning:  center  52 has no basis functions!
 Warning:  center  53 has no basis functions!
 Warning:  center  54 has no basis functions!
 Warning:  center  55 has no basis functions!
 Warning:  center  56 has no basis functions!
 Warning:  center  57 has no basis functions!
 Warning:  center  58 has no basis functions!
 Warning:  center  59 has no basis functions!
 Warning:  center  60 has no basis functions!
 Warning:  center  61 has no basis functions!
 Warning:  center  62 has no basis functions!
 Warning:  center  63 has no basis functions!
 Warning:  center  64 has no basis functions!
 Warning:  center  65 has no basis functions!
 Warning:  center  66 has no basis functions!
 Warning:  center  67 has no basis functions!
 Warning:  center  68 has no basis functions!
 Warning:  center  69 has no basis functions!
 Warning:  center  70 has no basis functions!
 Warning:  center  71 has no basis functions!
 Warning:  center  72 has no basis functions!
 Warning:  center  73 has no basis functions!
 Warning:  center  74 has no basis functions!
 Warning:  center  75 has no basis functions!
 Warning:  center  76 has no basis functions!
 Warning:  center  77 has no basis functions!
 Warning:  center  78 has no basis functions!
 Warning:  center  79 has no basis functions!
 Ernie: Thresh=  0.10000D-02 Tol=  0.10000D-05 Strict=F.
   546 basis functions,   836 primitive gaussians,   582 cartesian basis functions
    60 alpha electrons       58 beta electrons
       nuclear repulsion energy      1075.8315298245 Hartrees.
 IExCor=  402 DFT=T Ex+Corr=B3LYP ExCW=0 ScaHFX=  0.200000
 ScaDFX=  0.800000  0.720000  1.000000  0.810000 ScalE2=  1.000000  1.000000
 IRadAn=      5 IRanWt=     -1 IRanGd=            0 ICorTp=0 IEmpDi=  4
 NAtoms=   79 NActive=   79 NUniq=   79 SFac= 1.00D+00 NAtFMM=   60 NAOKFM=T Big=T
 Integral buffers will be    131072 words long.
 Raffenetti 2 integral format.
 Two-electron integral symmetry is turned off.
 Leave Link  301 at Wed Mar 15 11:15:37 2023, MaxMem=  1342177280 cpu:               0.1 elap:               0.0
 (Enter /home/wangzhe/g16/l302.exe)
 NPDir=0 NMtPBC=     1 NCelOv=     1 NCel=       1 NClECP=     1 NCelD=      1
         NCelK=      1 NCelE2=     1 NClLst=     1 CellRange=     0.0.
 One-electron integrals computed using PRISM.
 NBasis=   546 RedAO= T EigKep=  2.10D-06  NBF=   546
 NBsUse=   536 1.00D-06 EigRej=  7.26D-07 NBFU=   536
 Precomputing XC quadrature grid using
 IXCGrd= 4 IRadAn=           5 IRanWt=          -1 IRanGd=           0 AccXCQ= 0.00D+00.
 Generated NRdTot=       0 NPtTot=           0 NUsed=           0 NTot=          32
 NSgBfM=   579   579   579   579   579 MxSgAt=    79 MxSgA2=    28.
 Leave Link  302 at Wed Mar 15 11:15:37 2023, MaxMem=  1342177280 cpu:               3.0 elap:               0.4
 (Enter /home/wangzhe/g16/l303.exe)
 DipDrv:  MaxL=1.
 Leave Link  303 at Wed Mar 15 11:15:37 2023, MaxMem=  1342177280 cpu:               0.3 elap:               0.0
 (Enter /home/wangzhe/g16/l308.exe)
 Leave Link  308 at Wed Mar 15 11:15:37 2023, MaxMem=  1342177280 cpu:               0.5 elap:               0.1
 (Enter /home/wangzhe/g16/l401.exe)
 ExpMin= 4.38D-02 ExpMax= 4.56D+03 ExpMxC= 6.82D+02 IAcc=3 IRadAn=         5 AccDes= 0.00D+00
 Harris functional with IExCor=  402 and IRadAn=       5 diagonalized for initial guess.
 HarFok:  IExCor=  402 AccDes= 0.00D+00 IRadAn=         5 IDoV= 1 UseB2=F ITyADJ=14
 ICtDFT=  3500011 ScaDFX=  1.000000  1.000000  1.000000  1.000000
 FoFCou: FMM=F IPFlag=           0 FMFlag=      100000 FMFlg1=        2001
         NFxFlg=           0 DoJE=T BraDBF=F KetDBF=T FulRan=T
         wScrn=  0.000000 ICntrl=       500 IOpCl=  0 I1Cent=   200000004 NGrid=           0
         NMat0=    1 NMatS0=      1 NMatT0=    0 NMatD0=    1 NMtDS0=    0 NMtDT0=    0
 Symmetry not used in FoFCou.
 Harris En= -691.949729342549    
 JPrj=0 DoOrth=F DoCkMO=F.
 Initial guess <Sx>= 0.0000 <Sy>= 0.0000 <Sz>= 1.0000 <S**2>= 2.0000 S= 1.0000
 Leave Link  401 at Wed Mar 15 11:15:39 2023, MaxMem=  1342177280 cpu:              16.1 elap:               2.0
 (Enter /home/wangzhe/g16/l502.exe)
 Two-electron integral symmetry not used.
 UHF open shell SCF:
 Using DIIS extrapolation, IDIIS=  1040.
 NGot=  1342177280 LenX=  1341490125 LenY=  1341150819
 Requested convergence on RMS density matrix=1.00D-08 within 128 cycles.
 Requested convergence on MAX density matrix=1.00D-06.
 Requested convergence on             energy=1.00D-06.
 No special actions if energy rises.
 Fock matrices will be formed incrementally for  20 cycles.

 Cycle   1  Pass 1  IDiag  1:
 FoFJK:  IHMeth= 1 ICntrl=       0 DoSepK=F KAlg= 0 I1Cent=           0 FoldK=F
 IRaf= 940000000 NMat=       1 IRICut=       1 DoRegI=T DoRafI=F ISym2E= 0 IDoP0=0 IntGTp=1.
 FoFCou: FMM=T IPFlag=           0 FMFlag=      100000 FMFlg1=        2001
         NFxFlg=           0 DoJE=F BraDBF=F KetDBF=F FulRan=T
         wScrn=  0.000000 ICntrl=         0 IOpCl=  1 I1Cent=           0 NGrid=           0
         NMat0=    1 NMatS0=      1 NMatT0=    0 NMatD0=    1 NMtDS0=    0 NMtDT0=    0
 Symmetry not used in FoFCou.
 FMM levels:  10  Number of levels for PrismC:   9
 E= -691.568949163293    
 DIIS: error= 4.21D-02 at cycle   1 NSaved=   1.
 NSaved= 1 IEnMin= 1 EnMin= -691.568949163293     IErMin= 1 ErrMin= 4.21D-02
 ErrMax= 4.21D-02  0.00D+00 EMaxC= 1.00D-01 BMatC= 1.45D+00 BMatP= 1.45D+00
 IDIUse=3 WtCom= 5.79D-01 WtEn= 4.21D-01
 Coeff-Com:  0.100D+01
 Coeff-En:   0.100D+01
 Coeff:      0.100D+01
 Gap=     0.075 Goal=   None    Shift=    0.000
 Gap=     0.091 Goal=   None    Shift=    0.000
 GapD=    0.075 DampG=0.500 DampE=0.500 DampFc=0.2500 IDamp=-1.
 Damping current iteration by 2.50D-01
 RMSDP=6.16D-03 MaxDP=1.99D-01              OVMax= 2.12D-01

 Cycle   2  Pass 1  IDiag  1:
 RMSU=  1.54D-03    CP:  9.86D-01
 E= -691.694784199234     Delta-E=       -0.125835035941 Rises=F Damp=T
 DIIS: error= 2.32D-02 at cycle   2 NSaved=   2.
 NSaved= 2 IEnMin= 2 EnMin= -691.694784199234     IErMin= 2 ErrMin= 2.32D-02
 ErrMax= 2.32D-02  0.00D+00 EMaxC= 1.00D-01 BMatC= 4.58D-01 BMatP= 1.45D+00
 IDIUse=3 WtCom= 7.68D-01 WtEn= 2.32D-01
 Coeff-Com: -0.109D+01 0.209D+01
 Coeff-En:   0.000D+00 0.100D+01
 Coeff:     -0.838D+00 0.184D+01
 Gap=     0.115 Goal=   None    Shift=    0.000
 Gap=     0.101 Goal=   None    Shift=    0.000
 RMSDP=2.80D-03 MaxDP=9.65D-02 DE=-1.26D-01 OVMax= 1.24D-01

 Cycle   3  Pass 1  IDiag  1:
 RMSU=  1.35D-03    CP:  9.51D-01  2.58D+00
 E= -691.919726035884     Delta-E=       -0.224941836650 Rises=F Damp=F
 DIIS: error= 1.19D-02 at cycle   3 NSaved=   3.
 NSaved= 3 IEnMin= 3 EnMin= -691.919726035884     IErMin= 3 ErrMin= 1.19D-02
 ErrMax= 1.19D-02  0.00D+00 EMaxC= 1.00D-01 BMatC= 4.03D-02 BMatP= 4.58D-01
 IDIUse=3 WtCom= 8.81D-01 WtEn= 1.19D-01
 Coeff-Com: -0.413D+00 0.792D+00 0.621D+00
 Coeff-En:   0.000D+00 0.000D+00 0.100D+01
 Coeff:     -0.364D+00 0.698D+00 0.666D+00
 Gap=     0.069 Goal=   None    Shift=    0.000
 Gap=     0.094 Goal=   None    Shift=    0.000
 RMSDP=9.51D-04 MaxDP=3.77D-02 DE=-2.25D-01 OVMax= 1.24D-01

 Cycle   4  Pass 1  IDiag  1:
 RMSU=  5.90D-04    CP:  9.33D-01  2.13D+00  8.68D-01
 E= -691.916680064240     Delta-E=        0.003045971644 Rises=F Damp=F
 DIIS: error= 1.39D-02 at cycle   4 NSaved=   4.
 NSaved= 4 IEnMin= 3 EnMin= -691.919726035884     IErMin= 3 ErrMin= 1.19D-02
 ErrMax= 1.39D-02  0.00D+00 EMaxC= 1.00D-01 BMatC= 4.63D-02 BMatP= 4.03D-02
 IDIUse=2 WtCom= 0.00D+00 WtEn= 1.00D+00
 Coeff-En:   0.000D+00 0.000D+00 0.545D+00 0.455D+00
 Coeff:      0.000D+00 0.000D+00 0.545D+00 0.455D+00
 Gap=     0.066 Goal=   None    Shift=    0.000
 Gap=     0.101 Goal=   None    Shift=    0.000
 RMSDP=3.65D-04 MaxDP=1.24D-02 DE= 3.05D-03 OVMax= 7.24D-02

 Cycle   5  Pass 1  IDiag  1:
 RMSU=  2.79D-04    CP:  9.34D-01  2.11D+00  8.22D-01  6.17D-01
 E= -691.931036278334     Delta-E=       -0.014356214095 Rises=F Damp=F
 DIIS: error= 1.45D-03 at cycle   5 NSaved=   5.
 NSaved= 5 IEnMin= 5 EnMin= -691.931036278334     IErMin= 5 ErrMin= 1.45D-03
 ErrMax= 1.45D-03  0.00D+00 EMaxC= 1.00D-01 BMatC= 1.63D-03 BMatP= 4.03D-02
 IDIUse=3 WtCom= 9.86D-01 WtEn= 1.45D-02
 Coeff-Com:  0.690D-02-0.428D-02 0.216D+00 0.204D+00 0.577D+00
 Coeff-En:   0.000D+00 0.000D+00 0.000D+00 0.000D+00 0.100D+01
 Coeff:      0.680D-02-0.422D-02 0.213D+00 0.202D+00 0.583D+00
 Gap=     0.068 Goal=   None    Shift=    0.000
 Gap=     0.101 Goal=   None    Shift=    0.000
 RMSDP=1.52D-04 MaxDP=6.07D-03 DE=-1.44D-02 OVMax= 9.23D-03

 Cycle   6  Pass 1  IDiag  1:
 RMSU=  5.40D-05    CP:  9.36D-01  2.17D+00  8.69D-01  5.94D-01  7.21D-01
 E= -691.931435020265     Delta-E=       -0.000398741931 Rises=F Damp=F
 DIIS: error= 6.83D-04 at cycle   6 NSaved=   6.
 NSaved= 6 IEnMin= 6 EnMin= -691.931435020265     IErMin= 6 ErrMin= 6.83D-04
 ErrMax= 6.83D-04  0.00D+00 EMaxC= 1.00D-01 BMatC= 2.69D-04 BMatP= 1.63D-03
 IDIUse=3 WtCom= 9.93D-01 WtEn= 6.83D-03
 Coeff-Com:  0.174D-01-0.279D-01 0.765D-01 0.806D-01 0.338D+00 0.515D+00
 Coeff-En:   0.000D+00 0.000D+00 0.000D+00 0.000D+00 0.000D+00 0.100D+01
 Coeff:      0.173D-01-0.277D-01 0.760D-01 0.800D-01 0.336D+00 0.518D+00
 Gap=     0.068 Goal=   None    Shift=    0.000
 Gap=     0.101 Goal=   None    Shift=    0.000
 RMSDP=2.53D-05 MaxDP=1.08D-03 DE=-3.99D-04 OVMax= 3.79D-03

 Cycle   7  Pass 1  IDiag  1:
 RMSU=  2.16D-05    CP:  9.36D-01  2.17D+00  8.71D-01  6.09D-01  7.49D-01
                    CP:  1.01D+00
 E= -691.931517264494     Delta-E=       -0.000082244228 Rises=F Damp=F
 DIIS: error= 2.69D-04 at cycle   7 NSaved=   7.
 NSaved= 7 IEnMin= 7 EnMin= -691.931517264494     IErMin= 7 ErrMin= 2.69D-04
 ErrMax= 2.69D-04  0.00D+00 EMaxC= 1.00D-01 BMatC= 3.27D-05 BMatP= 2.69D-04
 IDIUse=3 WtCom= 9.97D-01 WtEn= 2.69D-03
 Coeff-Com:  0.265D-02-0.580D-02-0.486D-01-0.471D-01-0.984D-01 0.163D+00
 Coeff-Com:  0.103D+01
 Coeff-En:   0.000D+00 0.000D+00 0.000D+00 0.000D+00 0.000D+00 0.000D+00
 Coeff-En:   0.100D+01
 Coeff:      0.265D-02-0.578D-02-0.484D-01-0.469D-01-0.981D-01 0.163D+00
 Coeff:      0.103D+01
 Gap=     0.069 Goal=   None    Shift=    0.000
 Gap=     0.102 Goal=   None    Shift=    0.000
 RMSDP=2.45D-05 MaxDP=7.95D-04 DE=-8.22D-05 OVMax= 4.77D-03

 Cycle   8  Pass 1  IDiag  1:
 RMSU=  1.64D-05    CP:  9.36D-01  2.17D+00  8.72D-01  6.13D-01  7.61D-01
                    CP:  1.29D+00  1.31D+00
 E= -691.931543981351     Delta-E=       -0.000026716857 Rises=F Damp=F
 DIIS: error= 1.47D-04 at cycle   8 NSaved=   8.
 NSaved= 8 IEnMin= 8 EnMin= -691.931543981351     IErMin= 8 ErrMin= 1.47D-04
 ErrMax= 1.47D-04  0.00D+00 EMaxC= 1.00D-01 BMatC= 1.24D-05 BMatP= 3.27D-05
 IDIUse=3 WtCom= 9.99D-01 WtEn= 1.47D-03
 Coeff-Com: -0.166D-02 0.178D-02-0.400D-01-0.412D-01-0.114D+00-0.114D-01
 Coeff-Com:  0.585D+00 0.621D+00
 Coeff-En:   0.000D+00 0.000D+00 0.000D+00 0.000D+00 0.000D+00 0.000D+00
 Coeff-En:   0.000D+00 0.100D+01
 Coeff:     -0.166D-02 0.178D-02-0.399D-01-0.411D-01-0.113D+00-0.114D-01
 Coeff:      0.585D+00 0.621D+00
 Gap=     0.069 Goal=   None    Shift=    0.000
 Gap=     0.103 Goal=   None    Shift=    0.000
 RMSDP=8.67D-06 MaxDP=3.27D-04 DE=-2.67D-05 OVMax= 1.78D-03

 Cycle   9  Pass 1  IDiag  1:
 RMSU=  5.75D-06    CP:  9.36D-01  2.17D+00  8.72D-01  6.16D-01  7.65D-01
                    CP:  1.37D+00  1.51D+00  1.05D+00
 E= -691.931549339991     Delta-E=       -0.000005358641 Rises=F Damp=F
 DIIS: error= 6.14D-05 at cycle   9 NSaved=   9.
 NSaved= 9 IEnMin= 9 EnMin= -691.931549339991     IErMin= 9 ErrMin= 6.14D-05
 ErrMax= 6.14D-05  0.00D+00 EMaxC= 1.00D-01 BMatC= 2.93D-06 BMatP= 1.24D-05
 IDIUse=1 WtCom= 1.00D+00 WtEn= 0.00D+00
 Coeff-Com: -0.214D-02 0.331D-02-0.830D-02-0.941D-02-0.349D-01-0.639D-01
 Coeff-Com:  0.145D-01 0.376D+00 0.725D+00
 Coeff:     -0.214D-02 0.331D-02-0.830D-02-0.941D-02-0.349D-01-0.639D-01
 Coeff:      0.145D-01 0.376D+00 0.725D+00
 Gap=     0.069 Goal=   None    Shift=    0.000
 Gap=     0.103 Goal=   None    Shift=    0.000
 RMSDP=4.33D-06 MaxDP=1.49D-04 DE=-5.36D-06 OVMax= 8.34D-04

 Cycle  10  Pass 1  IDiag  1:
 RMSU=  2.27D-06    CP:  9.36D-01  2.17D+00  8.72D-01  6.16D-01  7.70D-01
                    CP:  1.42D+00  1.57D+00  1.15D+00  9.61D-01
 E= -691.931550567675     Delta-E=       -0.000001227684 Rises=F Damp=F
 DIIS: error= 1.66D-05 at cycle  10 NSaved=  10.
 NSaved=10 IEnMin=10 EnMin= -691.931550567675     IErMin=10 ErrMin= 1.66D-05
 ErrMax= 1.66D-05  0.00D+00 EMaxC= 1.00D-01 BMatC= 1.07D-07 BMatP= 2.93D-06
 IDIUse=1 WtCom= 1.00D+00 WtEn= 0.00D+00
 Coeff-Com: -0.484D-03 0.763D-03 0.493D-03 0.626D-03-0.131D-02-0.133D-01
 Coeff-Com: -0.332D-01 0.488D-01 0.175D+00 0.822D+00
 Coeff:     -0.484D-03 0.763D-03 0.493D-03 0.626D-03-0.131D-02-0.133D-01
 Coeff:     -0.332D-01 0.488D-01 0.175D+00 0.822D+00
 Gap=     0.069 Goal=   None    Shift=    0.000
 Gap=     0.103 Goal=   None    Shift=    0.000
 RMSDP=9.53D-07 MaxDP=2.81D-05 DE=-1.23D-06 OVMax= 1.30D-04

 Cycle  11  Pass 1  IDiag  1:
 RMSU=  8.28D-07    CP:  9.36D-01  2.17D+00  8.72D-01  6.16D-01  7.69D-01
                    CP:  1.42D+00  1.58D+00  1.17D+00  9.85D-01  1.09D+00
 E= -691.931550612944     Delta-E=       -0.000000045269 Rises=F Damp=F
 DIIS: error= 9.23D-06 at cycle  11 NSaved=  11.
 NSaved=11 IEnMin=11 EnMin= -691.931550612944     IErMin=11 ErrMin= 9.23D-06
 ErrMax= 9.23D-06  0.00D+00 EMaxC= 1.00D-01 BMatC= 5.29D-08 BMatP= 1.07D-07
 IDIUse=1 WtCom= 1.00D+00 WtEn= 0.00D+00
 Coeff-Com:  0.207D-03-0.310D-03 0.212D-02 0.243D-02 0.680D-02 0.696D-02
 Coeff-Com: -0.220D-01-0.548D-01-0.606D-01 0.461D+00 0.658D+00
 Coeff:      0.207D-03-0.310D-03 0.212D-02 0.243D-02 0.680D-02 0.696D-02
 Coeff:     -0.220D-01-0.548D-01-0.606D-01 0.461D+00 0.658D+00
 Gap=     0.069 Goal=   None    Shift=    0.000
 Gap=     0.103 Goal=   None    Shift=    0.000
 RMSDP=4.97D-07 MaxDP=1.88D-05 DE=-4.53D-08 OVMax= 6.02D-05

 Cycle  12  Pass 1  IDiag  1:
 RMSU=  4.26D-07    CP:  9.36D-01  2.17D+00  8.72D-01  6.16D-01  7.69D-01
                    CP:  1.42D+00  1.58D+00  1.17D+00  9.96D-01  1.19D+00
                    CP:  1.11D+00
 E= -691.931550632765     Delta-E=       -0.000000019820 Rises=F Damp=F
 DIIS: error= 2.81D-06 at cycle  12 NSaved=  12.
 NSaved=12 IEnMin=12 EnMin= -691.931550632765     IErMin=12 ErrMin= 2.81D-06
 ErrMax= 2.81D-06  0.00D+00 EMaxC= 1.00D-01 BMatC= 3.23D-09 BMatP= 5.29D-08
 IDIUse=1 WtCom= 1.00D+00 WtEn= 0.00D+00
 Coeff-Com:  0.149D-03-0.221D-03 0.251D-03 0.256D-03 0.129D-02 0.399D-02
 Coeff-Com:  0.333D-02-0.178D-01-0.451D-01-0.970D-01 0.101D+00 0.105D+01
 Coeff:      0.149D-03-0.221D-03 0.251D-03 0.256D-03 0.129D-02 0.399D-02
 Coeff:      0.333D-02-0.178D-01-0.451D-01-0.970D-01 0.101D+00 0.105D+01
 Gap=     0.069 Goal=   None    Shift=    0.000
 Gap=     0.103 Goal=   None    Shift=    0.000
 RMSDP=2.87D-07 MaxDP=1.24D-05 DE=-1.98D-08 OVMax= 3.43D-05

 Cycle  13  Pass 1  IDiag  1:
 RMSU=  1.61D-07    CP:  9.36D-01  2.17D+00  8.72D-01  6.16D-01  7.69D-01
                    CP:  1.42D+00  1.58D+00  1.17D+00  1.00D+00  1.25D+00
                    CP:  1.26D+00  1.16D+00
 E= -691.931550635424     Delta-E=       -0.000000002659 Rises=F Damp=F
 DIIS: error= 8.36D-07 at cycle  13 NSaved=  13.
 NSaved=13 IEnMin=13 EnMin= -691.931550635424     IErMin=13 ErrMin= 8.36D-07
 ErrMax= 8.36D-07  0.00D+00 EMaxC= 1.00D-01 BMatC= 2.11D-10 BMatP= 3.23D-09
 IDIUse=1 WtCom= 1.00D+00 WtEn= 0.00D+00
 Coeff-Com:  0.708D-05-0.973D-05-0.116D-03-0.131D-03-0.273D-03 0.329D-04
 Coeff-Com:  0.224D-02 0.158D-02-0.361D-02-0.563D-01-0.405D-01 0.180D+00
 Coeff-Com:  0.917D+00
 Coeff:      0.708D-05-0.973D-05-0.116D-03-0.131D-03-0.273D-03 0.329D-04
 Coeff:      0.224D-02 0.158D-02-0.361D-02-0.563D-01-0.405D-01 0.180D+00
 Coeff:      0.917D+00
 Gap=     0.069 Goal=   None    Shift=    0.000
 Gap=     0.103 Goal=   None    Shift=    0.000
 RMSDP=7.46D-08 MaxDP=2.88D-06 DE=-2.66D-09 OVMax= 1.40D-05

 Cycle  14  Pass 1  IDiag  1:
 RMSU=  5.08D-08    CP:  9.36D-01  2.17D+00  8.72D-01  6.16D-01  7.69D-01
                    CP:  1.42D+00  1.58D+00  1.17D+00  1.00D+00  1.26D+00
                    CP:  1.31D+00  1.20D+00  1.04D+00
 E= -691.931550635585     Delta-E=       -0.000000000161 Rises=F Damp=F
 DIIS: error= 3.04D-07 at cycle  14 NSaved=  14.
 NSaved=14 IEnMin=14 EnMin= -691.931550635585     IErMin=14 ErrMin= 3.04D-07
 ErrMax= 3.04D-07  0.00D+00 EMaxC= 1.00D-01 BMatC= 2.20D-11 BMatP= 2.11D-10
 IDIUse=1 WtCom= 1.00D+00 WtEn= 0.00D+00
 Coeff-Com: -0.906D-05 0.131D-04-0.293D-04-0.369D-04-0.104D-03-0.247D-03
 Coeff-Com: -0.241D-04 0.126D-02 0.225D-02-0.968D-03-0.116D-01-0.473D-01
 Coeff-Com:  0.125D+00 0.932D+00
 Coeff:     -0.906D-05 0.131D-04-0.293D-04-0.369D-04-0.104D-03-0.247D-03
 Coeff:     -0.241D-04 0.126D-02 0.225D-02-0.968D-03-0.116D-01-0.473D-01
 Coeff:      0.125D+00 0.932D+00
 Gap=     0.069 Goal=   None    Shift=    0.000
 Gap=     0.103 Goal=   None    Shift=    0.000
 RMSDP=2.01D-08 MaxDP=5.09D-07 DE=-1.61D-10 OVMax= 4.59D-06

 Cycle  15  Pass 1  IDiag  1:
 RMSU=  1.31D-08    CP:  9.36D-01  2.17D+00  8.72D-01  6.16D-01  7.69D-01
                    CP:  1.42D+00  1.58D+00  1.17D+00  1.00D+00  1.25D+00
                    CP:  1.31D+00  1.22D+00  1.09D+00  1.06D+00
 E= -691.931550635602     Delta-E=       -0.000000000016 Rises=F Damp=F
 DIIS: error= 1.68D-07 at cycle  15 NSaved=  15.
 NSaved=15 IEnMin=15 EnMin= -691.931550635602     IErMin=15 ErrMin= 1.68D-07
 ErrMax= 1.68D-07  0.00D+00 EMaxC= 1.00D-01 BMatC= 1.98D-11 BMatP= 2.20D-11
 IDIUse=1 WtCom= 1.00D+00 WtEn= 0.00D+00
 Coeff-Com: -0.691D-05 0.989D-05-0.451D-05-0.744D-05-0.348D-04-0.168D-03
 Coeff-Com: -0.317D-03 0.643D-03 0.196D-02 0.681D-02-0.205D-02-0.551D-01
 Coeff-Com: -0.439D-01 0.602D+00 0.490D+00
 Coeff:     -0.691D-05 0.989D-05-0.451D-05-0.744D-05-0.348D-04-0.168D-03
 Coeff:     -0.317D-03 0.643D-03 0.196D-02 0.681D-02-0.205D-02-0.551D-01
 Coeff:     -0.439D-01 0.602D+00 0.490D+00
 Gap=     0.069 Goal=   None    Shift=    0.000
 Gap=     0.103 Goal=   None    Shift=    0.000
 RMSDP=7.63D-09 MaxDP=2.51D-07 DE=-1.64D-11 OVMax= 1.68D-06

 SCF Done:  E(UB3LYP) =  -691.931550636     A.U. after   15 cycles
            NFock= 15  Conv=0.76D-08     -V/T= 2.0041
 <Sx>= 0.0000 <Sy>= 0.0000 <Sz>= 1.0000 <S**2>= 2.0265 S= 1.0088
 <L.S>=  0.00000000000    
 KE= 6.891147981883D+02 PE=-3.757100973040D+03 EE= 1.300223094392D+03
 Annihilation of the first spin contaminant:
 S**2 before annihilation     2.0265,   after     2.0004
 Leave Link  502 at Wed Mar 15 11:19:34 2023, MaxMem=  1342177280 cpu:            1869.5 elap:             234.8
 (Enter /home/wangzhe/g16/l801.exe)
 DoSCS=F DFT=T ScalE2(SS,OS)=  1.000000  1.000000
 Range of M.O.s used for correlation:     1   536
 NBasis=   546 NAE=    60 NBE=    58 NFC=     0 NFV=     0
 NROrb=    536 NOA=    60 NOB=    58 NVA=   476 NVB=   478

 **** Warning!!: The largest alpha MO coefficient is  0.14569329D+03


 **** Warning!!: The smallest alpha delta epsilon is  0.68827112D-01


 **** Warning!!: The largest beta MO coefficient is  0.14506194D+03

 Leave Link  801 at Wed Mar 15 11:19:34 2023, MaxMem=  1342177280 cpu:               0.1 elap:               0.0
 (Enter /home/wangzhe/g16/l1002.exe)
 Minotr:  UHF open shell wavefunction.
          Direct CPHF calculation.
          Differentiating once with respect to magnetic field using GIAOs.
          Electric field/nuclear overlap derivatives assumed to be zero.
          Requested convergence is 1.0D-08 RMS, and 1.0D-07 maximum.
          Secondary convergence is 1.0D-12 RMS, and 1.0D-12 maximum.
          NewPWx=T KeepS1=F KeepF1=F KeepIn=T MapXYZ=F SortEE=F KeepMc=T.
        10117 words used for storage of precomputed grid.
 Two-electron integral symmetry not used.
          MDV=    1342177280 using IRadAn=       1.
          Solving linear equations simultaneously, MaxMat=      72.
 FoFCou: FMM=F IPFlag=           0 FMFlag=      100000 FMFlg1=        2001
         NFxFlg=           0 DoJE=F BraDBF=F KetDBF=T FulRan=T
         wScrn=  0.000000 ICntrl=      6100 IOpCl=  0 I1Cent=           7 NGrid=          79
         NMat0=    1 NMatS0=      1 NMatT0=    0 NMatD0=    1 NMtDS0=    0 NMtDT0=    0
 Symmetry not used in FoFCou.
 FoFJK:  IHMeth= 1 ICntrl=    6127 DoSepK=F KAlg= 0 I1Cent=           0 FoldK=F
 IRaf=         1 NMat=       1 IRICut=       1 DoRegI=T DoRafI=F ISym2E= 0 IDoP0=0 IntGTp=1.
          There are     3 degrees of freedom in the 1st order CPHF.  IDoFFX=0 NUNeed=     3.
      3 vectors produced by pass  0 Test12= 1.88D-12 3.33D-08 XBig12= 4.06D+02 4.67D+00.
 AX will form     3 AO Fock derivatives at one time.
      3 vectors produced by pass  1 Test12= 1.88D-12 3.33D-08 XBig12= 2.45D+00 5.78D-01.
      3 vectors produced by pass  2 Test12= 1.88D-12 3.33D-08 XBig12= 2.22D-02 1.01D-01.
      3 vectors produced by pass  3 Test12= 1.88D-12 3.33D-08 XBig12= 7.36D-04 1.82D-02.
      3 vectors produced by pass  4 Test12= 1.88D-12 3.33D-08 XBig12= 6.11D-06 1.52D-03.
      3 vectors produced by pass  5 Test12= 1.88D-12 3.33D-08 XBig12= 5.84D-08 1.37D-04.
      3 vectors produced by pass  6 Test12= 1.88D-12 3.33D-08 XBig12= 3.64D-10 1.12D-05.
      1 vectors produced by pass  7 Test12= 1.88D-12 3.33D-08 XBig12= 2.40D-12 6.66D-07.
      1 vectors produced by pass  8 Test12= 1.88D-12 3.33D-08 XBig12= 7.00D-15 3.42D-08.
 InvSVY:  IOpt=1 It=  1 EMax= 1.78D-15
 Solved reduced A of dimension    23 with     3 vectors.
 Calculating GIAO nuclear magnetic shielding tensors.
 SCF GIAO Magnetic shielding tensor (ppm):
      1  H    Isotropic =    24.3995   Anisotropy =     5.6141
   XX=    25.3975   YX=     2.2495   ZX=    -0.0000
   XY=     1.6533   YY=    26.7548   ZY=     0.0000
   XZ=     0.0000   YZ=     0.0000   ZZ=    21.0461
   Eigenvalues:    21.0461    24.0101    28.1422
      2  C    Isotropic =    59.8110   Anisotropy =   167.9016
   XX=    -7.4715   YX=    37.0905   ZX=    -0.0000
   XY=    30.2175   YY=    15.1590   ZY=     0.0000
   XZ=    -0.0000   YZ=     0.0000   ZZ=   171.7454
   Eigenvalues:   -31.6615    39.3490   171.7454
      3  C    Isotropic =    60.0020   Anisotropy =   167.7073
   XX=   -15.6004   YX=    25.9850   ZX=    -0.0000
   XY=    33.0953   YY=    23.7995   ZY=    -0.0000
   XZ=     0.0000   YZ=    -0.0000   ZZ=   171.8069
   Eigenvalues:   -31.4069    39.6060   171.8069
      4  C    Isotropic =    31.5575   Anisotropy =   169.6781
   XX=   -49.2759   YX=   -18.2239   ZX=    -0.0000
   XY=   -14.9460   YY=    -0.7278   ZY=     0.0000
   XZ=    -0.0000   YZ=    -0.0000   ZZ=   144.6762
   Eigenvalues:   -54.4007     4.3969   144.6762
      5  C    Isotropic =    50.5301   Anisotropy =   179.1914
   XX=    38.5628   YX=     4.7469   ZX=     0.0000
   XY=    -2.1647   YY=   -56.9636   ZY=     0.0000
   XZ=     0.0000   YZ=    -0.0000   ZZ=   169.9910
   Eigenvalues:   -56.9811    38.5803   169.9910
      6  C    Isotropic =    50.5887   Anisotropy =   179.2846
   XX=   -39.3265   YX=   -40.6637   ZX=    -0.0000
   XY=   -33.6443   YY=    20.9808   ZY=    -0.0000
   XZ=     0.0000   YZ=     0.0000   ZZ=   170.1118
   Eigenvalues:   -57.0233    38.6775   170.1118
      7  C    Isotropic =    31.5873   Anisotropy =   169.8487
   XX=     2.9465   YX=    11.0223   ZX=    -0.0000
   XY=     7.7995   YY=   -53.0043   ZY=    -0.0000
   XZ=     0.0000   YZ=     0.0000   ZZ=   144.8198
   Eigenvalues:   -54.5448     4.4870   144.8198
      8  H    Isotropic =    24.5565   Anisotropy =     5.2186
   XX=    28.0231   YX=     0.4120   ZX=     0.0000
   XY=     0.0324   YY=    24.0672   ZY=    -0.0000
   XZ=     0.0000   YZ=    -0.0000   ZZ=    21.5791
   Eigenvalues:    21.5791    24.0548    28.0355
      9  H    Isotropic =    24.5313   Anisotropy =     5.2045
   XX=    24.6103   YX=    -1.6205   ZX=     0.0000
   XY=    -1.2392   YY=    27.3980   ZY=    -0.0000
   XZ=     0.0000   YZ=    -0.0000   ZZ=    21.5857
   Eigenvalues:    21.5857    24.0073    28.0010
     10  H    Isotropic =    24.3954   Anisotropy =     5.5790
   XX=    24.9650   YX=     1.4242   ZX=    -0.0000
   XY=     2.0026   YY=    27.1826   ZY=    -0.0000
   XZ=     0.0000   YZ=    -0.0000   ZZ=    21.0385
   Eigenvalues:    21.0385    24.0330    28.1147
     11  C    Isotropic =    40.1706   Anisotropy =   145.0356
   XX=    11.2769   YX=    19.1462   ZX=     0.0000
   XY=    25.7173   YY=   -27.6260   ZY=     0.0000
   XZ=    -0.0000   YZ=    -0.0000   ZZ=   136.8610
   Eigenvalues:   -37.8653    21.5162   136.8610
     12  C    Isotropic =    40.1706   Anisotropy =   145.0356
   XX=    11.2769   YX=    19.1462   ZX=     0.0000
   XY=    25.7173   YY=   -27.6260   ZY=    -0.0000
   XZ=    -0.0000   YZ=    -0.0000   ZZ=   136.8610
   Eigenvalues:   -37.8653    21.5162   136.8610
     13  C    Isotropic =    70.6503   Anisotropy =   146.4508
   XX=    11.9169   YX=    20.6145   ZX=    -0.0000
   XY=    20.7247   YY=    31.7498   ZY=     0.0000
   XZ=     0.0000   YZ=     0.0000   ZZ=   168.2842
   Eigenvalues:    -1.0919    44.7587   168.2842
     14  C    Isotropic =    40.2772   Anisotropy =   144.9497
   XX=   -37.3210   YX=     1.1592   ZX=     0.0000
   XY=    -5.4950   YY=    21.2424   ZY=    -0.0000
   XZ=    -0.0000   YZ=     0.0000   ZZ=   136.9104
   Eigenvalues:   -37.4012    21.3226   136.9104
     15  C    Isotropic =    70.6503   Anisotropy =   146.4508
   XX=    11.9169   YX=    20.6145   ZX=     0.0000
   XY=    20.7247   YY=    31.7498   ZY=    -0.0000
   XZ=    -0.0000   YZ=    -0.0000   ZZ=   168.2842
   Eigenvalues:    -1.0919    44.7587   168.2842
     16  C    Isotropic =    40.2772   Anisotropy =   144.9497
   XX=   -37.3210   YX=     1.1592   ZX=     0.0000
   XY=    -5.4950   YY=    21.2424   ZY=    -0.0000
   XZ=     0.0000   YZ=     0.0000   ZZ=   136.9104
   Eigenvalues:   -37.4012    21.3226   136.9104
     17  H    Isotropic =    24.6348   Anisotropy =     5.3443
   XX=    25.6675   YX=     1.5692   ZX=    -0.0000
   XY=     1.5844   YY=    27.2150   ZY=     0.0000
   XZ=    -0.0000   YZ=     0.0000   ZZ=    21.0219
   Eigenvalues:    21.0219    24.6848    28.1977
     18  H    Isotropic =    24.6348   Anisotropy =     5.3443
   XX=    25.6675   YX=     1.5692   ZX=    -0.0000
   XY=     1.5844   YY=    27.2150   ZY=    -0.0000
   XZ=    -0.0000   YZ=     0.0000   ZZ=    21.0219
   Eigenvalues:    21.0219    24.6848    28.1977
     19  C    Isotropic =    31.5575   Anisotropy =   169.6781
   XX=   -49.2759   YX=   -18.2239   ZX=    -0.0000
   XY=   -14.9460   YY=    -0.7278   ZY=     0.0000
   XZ=     0.0000   YZ=     0.0000   ZZ=   144.6762
   Eigenvalues:   -54.4007     4.3969   144.6762
     20  C    Isotropic =    50.5887   Anisotropy =   179.2846
   XX=   -39.3265   YX=   -40.6637   ZX=    -0.0000
   XY=   -33.6443   YY=    20.9808   ZY=    -0.0000
   XZ=    -0.0000   YZ=    -0.0000   ZZ=   170.1118
   Eigenvalues:   -57.0233    38.6775   170.1118
     21  C    Isotropic =    31.5873   Anisotropy =   169.8487
   XX=     2.9465   YX=    11.0223   ZX=    -0.0000
   XY=     7.7995   YY=   -53.0043   ZY=    -0.0000
   XZ=     0.0000   YZ=     0.0000   ZZ=   144.8198
   Eigenvalues:   -54.5448     4.4870   144.8198
     22  C    Isotropic =    59.8110   Anisotropy =   167.9016
   XX=    -7.4715   YX=    37.0905   ZX=    -0.0000
   XY=    30.2175   YY=    15.1590   ZY=     0.0000
   XZ=     0.0000   YZ=    -0.0000   ZZ=   171.7454
   Eigenvalues:   -31.6615    39.3490   171.7454
     23  C    Isotropic =    50.5301   Anisotropy =   179.1914
   XX=    38.5628   YX=     4.7469   ZX=    -0.0000
   XY=    -2.1647   YY=   -56.9636   ZY=     0.0000
   XZ=     0.0000   YZ=    -0.0000   ZZ=   169.9910
   Eigenvalues:   -56.9811    38.5803   169.9910
     24  C    Isotropic =    60.0020   Anisotropy =   167.7073
   XX=   -15.6004   YX=    25.9850   ZX=    -0.0000
   XY=    33.0953   YY=    23.7995   ZY=    -0.0000
   XZ=    -0.0000   YZ=     0.0000   ZZ=   171.8069
   Eigenvalues:   -31.4069    39.6060   171.8069
     25  H    Isotropic =    24.3995   Anisotropy =     5.6141
   XX=    25.3975   YX=     2.2495   ZX=     0.0000
   XY=     1.6533   YY=    26.7548   ZY=     0.0000
   XZ=     0.0000   YZ=    -0.0000   ZZ=    21.0461
   Eigenvalues:    21.0461    24.0101    28.1422
     26  H    Isotropic =    24.5565   Anisotropy =     5.2186
   XX=    28.0231   YX=     0.4120   ZX=     0.0000
   XY=     0.0324   YY=    24.0672   ZY=     0.0000
   XZ=    -0.0000   YZ=    -0.0000   ZZ=    21.5791
   Eigenvalues:    21.5791    24.0548    28.0355
     27  H    Isotropic =    24.3954   Anisotropy =     5.5790
   XX=    24.9650   YX=     1.4242   ZX=    -0.0000
   XY=     2.0026   YY=    27.1826   ZY=    -0.0000
   XZ=    -0.0000   YZ=    -0.0000   ZZ=    21.0385
   Eigenvalues:    21.0385    24.0330    28.1147
     28  H    Isotropic =    24.5313   Anisotropy =     5.2045
   XX=    24.6102   YX=    -1.6205   ZX=    -0.0000
   XY=    -1.2392   YY=    27.3980   ZY=    -0.0000
   XZ=    -0.0000   YZ=     0.0000   ZZ=    21.5857
   Eigenvalues:    21.5857    24.0073    28.0010
     29  Bq   Isotropic =    13.6365   Anisotropy =    22.7903
   XX=     7.1088   YX=     0.0293   ZX=    -1.5022
   XY=     0.0378   YY=     7.1515   ZY=    -2.3954
   XZ=    -5.7690   YZ=    -9.2701   ZZ=    26.6492
   Eigenvalues:     4.9888     7.0906    28.8301
     30  Bq   Isotropic =    13.6539   Anisotropy =    23.7309
   XX=     6.2496   YX=    -0.3107   ZX=    -0.8614
   XY=    -0.3083   YY=     5.9560   ZY=    -1.3588
   XZ=    -3.5121   YZ=    -5.6421   ZZ=    28.7562
   Eigenvalues:     5.0420     6.4453    29.4745
     31  Bq   Isotropic =    12.2408   Anisotropy =    23.2424
   XX=     4.8301   YX=    -0.5824   ZX=    -0.1781
   XY=    -0.5863   YY=     4.2683   ZY=    -0.2601
   XZ=    -1.5596   YZ=    -2.5037   ZZ=    27.6239
   Eigenvalues:     3.7890     5.1975    27.7357
     32  Bq   Isotropic =    10.2581   Anisotropy =    21.8085
   XX=     3.2913   YX=    -0.6242   ZX=     0.3407
   XY=    -0.6355   YY=     2.6859   ZY=     0.5644
   XZ=    -0.3484   YZ=    -0.5571   ZZ=    24.7971
   Eigenvalues:     2.2898     3.6874    24.7971
     33  Bq   Isotropic =     8.4942   Anisotropy =    20.1870
   XX=     1.9916   YX=    -0.4432   ZX=     0.5468
   XY=    -0.4633   YY=     1.5583   ZY=     0.8809
   XZ=     0.1223   YZ=     0.2000   ZZ=    21.9327
   Eigenvalues:     1.2530     2.2773    21.9522
     34  Bq   Isotropic =     7.3491   Anisotropy =    18.9682
   XX=     1.1308   YX=    -0.1931   ZX=     0.4404
   XY=    -0.2224   YY=     0.9350   ZY=     0.6976
   XZ=     0.0920   YZ=     0.1529   ZZ=    19.9815
   Eigenvalues:     0.7901     1.2626    19.9946
     35  Bq   Isotropic =     6.9259   Anisotropy =    18.4755
   XX=     0.7963   YX=    -0.0455   ZX=     0.1537
   XY=    -0.0819   YY=     0.7386   ZY=     0.2332
   XZ=    -0.1766   YZ=    -0.2766   ZZ=    19.2429
   Eigenvalues:     0.6975     0.8374    19.2429
     36  Bq   Isotropic =     7.2230   Anisotropy =    18.7794
   XX=     1.0147   YX=    -0.0726   ZX=    -0.1218
   XY=    -0.1122   YY=     0.9280   ZY=    -0.2055
   XZ=    -0.4635   YZ=    -0.7361   ZZ=    19.7263
   Eigenvalues:     0.8530     1.0734    19.7426
     37  Bq   Isotropic =     8.2017   Anisotropy =    19.7024
   XX=     1.7522   YX=    -0.2003   ZX=    -0.2219
   XY=    -0.2392   YY=     1.5432   ZY=    -0.3612
   XZ=    -0.5542   YZ=    -0.8819   ZZ=    21.3096
   Eigenvalues:     1.3774     1.8910    21.3366
     38  Bq   Isotropic =     9.6801   Anisotropy =    20.8245
   XX=     2.8668   YX=    -0.2506   ZX=    -0.0929
   XY=    -0.2867   YY=     2.6144   ZY=    -0.1528
   XZ=    -0.2132   YZ=    -0.3355   ZZ=    23.5592
   Eigenvalues:     2.4399     3.0374    23.5631
     39  Bq   Isotropic =    11.1572   Anisotropy =    21.4504
   XX=     4.0580   YX=    -0.0713   ZX=     0.1624
   XY=    -0.1045   YY=     3.9892   ZY=     0.2581
   XZ=     0.7272   YZ=     1.1732   ZZ=    25.4245
   Eigenvalues:     3.8963     4.1179    25.4575
     40  Bq   Isotropic =    11.8309   Anisotropy =    20.6917
   XX=     4.9121   YX=     0.3113   ZX=     0.3444
   XY=     0.2825   YY=     5.2318   ZY=     0.5562
   XZ=     2.1519   YZ=     3.4610   ZZ=    25.3487
   Eigenvalues:     4.7346     5.1327    25.6253
     41  Bq   Isotropic =    11.0462   Anisotropy =    17.9505
   XX=     5.1084   YX=     0.6754   ZX=     0.3201
   XY=     0.6549   YY=     5.8086   ZY=     0.5235
   XZ=     3.5288   YZ=     5.6727   ZZ=    22.2216
   Eigenvalues:     4.7066     5.4188    23.0132
     42  Bq   Isotropic =     8.9068   Anisotropy =    13.5388
   XX=     4.6541   YX=     0.7976   ZX=     0.1324
   XY=     0.7892   YY=     5.5050   ZY=     0.2174
   XZ=     4.1435   YZ=     6.6596   ZZ=    16.5611
   Eigenvalues:     4.1779     4.6097    17.9326
     43  Bq   Isotropic =     6.3449   Anisotropy =     8.6061
   XX=     3.8894   YX=     0.6537   ZX=    -0.0820
   XY=     0.6572   YY=     4.6266   ZY=    -0.1426
   XZ=     3.6013   YZ=     5.7868   ZZ=    10.5186
   Eigenvalues:     3.4267     3.5256    12.0823
     44  Bq   Isotropic =     4.5056   Anisotropy =     4.3634
   XX=     3.2443   YX=     0.3893   ZX=    -0.2443
   XY=     0.4009   YY=     3.7370   ZY=    -0.4132
   XZ=     2.0973   YZ=     3.3685   ZZ=     6.5355
   Eigenvalues:     3.0010     3.1013     7.4145
     45  Bq   Isotropic =     4.0867   Anisotropy =     2.8678
   XX=     3.0065   YX=     0.1457   ZX=    -0.3748
   XY=     0.1603   YY=     3.2592   ZY=    -0.6088
   XZ=     0.2681   YZ=     0.4290   ZZ=     5.9945
   Eigenvalues:     2.9344     3.3272     5.9986
     46  Bq   Isotropic =     5.0681   Anisotropy =     6.0483
   XX=     3.2374   YX=    -0.0554   ZX=    -0.5277
   XY=    -0.0415   YY=     3.2779   ZY=    -0.8155
   XZ=    -1.1296   YZ=    -1.8159   ZZ=     8.6889
   Eigenvalues:     2.8083     3.2955     9.1003
     47  Bq   Isotropic =     6.7533   Anisotropy =     9.9457
   XX=     3.7701   YX=    -0.3022   ZX=    -0.7082
   XY=    -0.2913   YY=     3.5428   ZY=    -1.0644
   XZ=    -1.5380   YZ=    -2.4709   ZZ=    12.9472
   Eigenvalues:     2.9024     3.9738    13.3838
     48  Bq   Isotropic =     8.0783   Anisotropy =    12.6813
   XX=     4.2614   YX=    -0.6833   ZX=    -0.8314
   XY=    -0.6773   YY=     3.6289   ZY=    -1.2511
   XZ=    -0.8799   YZ=    -1.4123   ZZ=    16.3447
   Eigenvalues:     3.0071     4.6953    16.5326
     49  Bq   Isotropic =     8.2167   Anisotropy =    13.2480
   XX=     4.3660   YX=    -1.1503   ZX=    -0.7753
   XY=    -1.1505   YY=     3.2447   ZY=    -1.1924
   XZ=     0.3602   YZ=     0.5830   ZZ=    17.0394
   Eigenvalues:     2.5162     5.0851    17.0487
     50  Bq   Isotropic =     7.1118   Anisotropy =    11.7724
   XX=     3.9664   YX=    -1.5092   ZX=    -0.5134
   XY=    -1.5160   YY=     2.4685   ZY=    -0.8251
   XZ=     1.4547   YZ=     2.3461   ZZ=    14.9005
   Eigenvalues:     1.4700     4.9052    14.9601
     51  Bq   Isotropic =     5.3849   Anisotropy =     9.2207
   XX=     3.2339   YX=    -1.5958   ZX=    -0.1744
   XY=    -1.6077   YY=     1.6358   ZY=    -0.3206
   XZ=     1.9198   YZ=     3.0969   ZZ=    11.2851
   Eigenvalues:     0.3979     4.2248    11.5321
     52  Bq   Isotropic =     3.7654   Anisotropy =     6.5699
   XX=     2.4680   YX=    -1.4333   ZX=     0.0628
   XY=    -1.4472   YY=     1.0243   ZY=     0.0515
   XZ=     1.7016   YZ=     2.7459   ZZ=     7.8040
   Eigenvalues:    -0.2063     3.3572     8.1454
     53  Bq   Isotropic =     2.6855   Anisotropy =     4.4281
   XX=     1.9122   YX=    -1.1990   ZX=     0.1097
   XY=    -1.2123   YY=     0.6996   ZY=     0.1440
   XZ=     1.0077   YZ=     1.6265   ZZ=     5.4447
   Eigenvalues:    -0.2365     2.6554     5.6376
     54  Bq   Isotropic =     2.2796   Anisotropy =     3.4074
   XX=     1.6924   YX=    -1.0812   ZX=     0.0118
   XY=    -1.0936   YY=     0.5971   ZY=     0.0161
   XZ=     0.0870   YZ=     0.1404   ZZ=     4.5494
   Eigenvalues:    -0.0747     2.3623     4.5512
     55  Bq   Isotropic =     2.5612   Anisotropy =     4.1364
   XX=     1.8456   YX=    -1.1648   ZX=    -0.0996
   XY=    -1.1779   YY=     0.6670   ZY=    -0.1326
   XZ=    -0.8515   YZ=    -1.3742   ZZ=     5.1711
   Eigenvalues:    -0.2026     2.5675     5.3188
     56  Bq   Isotropic =     3.5233   Anisotropy =     6.1311
   XX=     2.3468   YX=    -1.3901   ZX=    -0.0857
   XY=    -1.4040   YY=     0.9454   ZY=    -0.0898
   XZ=    -1.6038   YZ=    -2.5882   ZZ=     7.2777
   Eigenvalues:    -0.2498     3.2090     7.6107
     57  Bq   Isotropic =     5.0667   Anisotropy =     8.7266
   XX=     3.0893   YX=    -1.5810   ZX=     0.1196
   XY=    -1.5936   YY=     1.5042   ZY=     0.2366
   XZ=    -1.9268   YZ=    -3.1085   ZZ=    10.6067
   Eigenvalues:     0.2448     4.0709    10.8845
     58  Bq   Isotropic =     6.8223   Anisotropy =    11.3581
   XX=     3.8502   YX=    -1.5472   ZX=     0.4523
   XY=    -1.5551   YY=     2.3116   ZY=     0.7361
   XZ=    -1.5923   YZ=    -2.5680   ZZ=    14.3052
   Eigenvalues:     1.2603     4.8123    14.3944
     59  Bq   Isotropic =     8.0971   Anisotropy =    13.1109
   XX=     4.3294   YX=    -1.2297   ZX=     0.7413
   XY=    -1.2311   YY=     3.1252   ZY=     1.1469
   XZ=    -0.5885   YZ=    -0.9506   ZZ=    16.8366
   Eigenvalues:     2.3565     5.0972    16.8377
     60  Bq   Isotropic =     8.2047   Anisotropy =    12.9569
   XX=     4.3165   YX=    -0.7657   ZX=     0.8373
   XY=    -0.7608   YY=     3.5974   ZY=     1.2634
   XZ=     0.6778   YZ=     1.0873   ZZ=    16.7001
   Eigenvalues:     2.9708     4.8006    16.8426
     61  Bq   Isotropic =     7.0509   Anisotropy =    10.5680
   XX=     3.8734   YX=    -0.3601   ZX=     0.7384
   XY=    -0.3500   YY=     3.5839   ZY=     1.1080
   XZ=     1.4906   YZ=     2.3946   ZZ=    13.6954
   Eigenvalues:     2.9446     4.1119    14.0962
     62  Bq   Isotropic =     5.3495   Anisotropy =     6.7688
   XX=     3.3196   YX=    -0.0932   ZX=     0.5595
   XY=    -0.0797   YY=     3.3191   ZY=     0.8584
   XZ=     1.2867   YZ=     2.0680   ZZ=     9.4100
   Eigenvalues:     2.7870     3.3996     9.8621
     63  Bq   Isotropic =     4.1727   Anisotropy =     3.2356
   XX=     3.0154   YX=     0.1077   ZX=     0.3996
   XY=     0.1224   YY=     3.2292   ZY=     0.6430
   XZ=     0.0372   YZ=     0.0615   ZZ=     6.2736
   Eigenvalues:     2.9640     3.2244     6.3298
     64  Bq   Isotropic =     4.3154   Anisotropy =     3.7635
   XX=     3.1663   YX=     0.3413   ZX=     0.2686
   XY=     0.3537   YY=     3.6128   ZY=     0.4518
   XZ=    -1.7683   YZ=    -2.8397   ZZ=     6.1671
   Eigenvalues:     2.9676     3.1542     6.8244
     65  Bq   Isotropic =     5.9299   Anisotropy =     7.7577
   XX=     3.7528   YX=     0.6096   ZX=     0.1157
   XY=     0.6150   YY=     4.4505   ZY=     0.1996
   XZ=    -3.3862   YZ=    -5.4407   ZZ=     9.5863
   Eigenvalues:     3.2767     3.4113    11.1017
     66  Bq   Isotropic =     8.4397   Anisotropy =    12.6465
   XX=     4.5258   YX=     0.7884   ZX=    -0.0919
   XY=     0.7823   YY=     5.3732   ZY=    -0.1500
   XZ=    -4.1334   YZ=    -6.6431   ZZ=    15.4201
   Eigenvalues:     4.0549     4.3934    16.8707
     67  Bq   Isotropic =    10.7413   Anisotropy =    17.2506
   XX=     5.0680   YX=     0.7193   ZX=    -0.2945
   XY=     0.7008   YY=     5.8165   ZY=    -0.4827
   XZ=    -3.7149   YZ=    -5.9716   ZZ=    21.3395
   Eigenvalues:     4.6393     5.3430    22.2417
     68  Bq   Isotropic =    11.8068   Anisotropy =    20.3483
   XX=     5.0014   YX=     0.3865   ZX=    -0.3565
   XY=     0.3589   YY=     5.3983   ZY=    -0.5770
   XZ=    -2.4255   YZ=    -3.9005   ZZ=    25.0206
   Eigenvalues:     4.7774     5.2705    25.3723
     69  Bq   Isotropic =    11.3634   Anisotropy =    21.4412
   XX=     4.2495   YX=    -0.0127   ZX=    -0.2066
   XY=    -0.0453   YY=     4.2400   ZY=    -0.3296
   XZ=    -0.9590   YZ=    -1.5454   ZZ=    25.6007
   Eigenvalues:     4.1592     4.2735    25.6576
     70  Bq   Isotropic =     9.9680   Anisotropy =    20.9992
   XX=     3.0878   YX=    -0.2375   ZX=     0.0508
   XY=    -0.2731   YY=     2.8495   ZY=     0.0852
   XZ=     0.0894   YZ=     0.1370   ZZ=    23.9666
   Eigenvalues:     2.6861     3.2503    23.9675
     71  Bq   Isotropic =     8.4415   Anisotropy =    19.9069
   XX=     1.9323   YX=    -0.2209   ZX=     0.2146
   XY=    -0.2593   YY=     1.7040   ZY=     0.3490
   XZ=     0.5313   YZ=     0.8453   ZZ=    21.6881
   Eigenvalues:     1.5277     2.0840    21.7127
     72  Bq   Isotropic =     7.3518   Anisotropy =    18.9093
   XX=     1.1119   YX=    -0.0926   ZX=     0.1563
   XY=    -0.1323   YY=     1.0058   ZY=     0.2600
   XZ=     0.5011   YZ=     0.7964   ZZ=    19.9377
   Eigenvalues:     0.9142     1.1832    19.9580
     73  Bq   Isotropic =     6.9268   Anisotropy =    18.4734
   XX=     0.7948   YX=    -0.0377   ZX=    -0.0974
   XY=    -0.0750   YY=     0.7440   ZY=    -0.1430
   XZ=     0.2331   YZ=     0.3671   ZZ=    19.2414
   Eigenvalues:     0.7067     0.8312    19.2424
     74  Bq   Isotropic =     7.2187   Anisotropy =    18.8200
   XX=     1.0299   YX=    -0.1549   ZX=    -0.3966
   XY=    -0.1857   YY=     0.8702   ZY=    -0.6259
   XZ=    -0.0542   YZ=    -0.0924   ZZ=    19.7559
   Eigenvalues:     0.7525     1.1382    19.7654
     75  Bq   Isotropic =     8.2356   Anisotropy =    19.9240
   XX=     1.7999   YX=    -0.3975   ZX=    -0.5483
   XY=    -0.4193   YY=     1.4101   ZY=    -0.8806
   XZ=    -0.1458   YZ=    -0.2379   ZZ=    21.4970
   Eigenvalues:     1.1311     2.0575    21.5183
     76  Bq   Isotropic =     9.9060   Anisotropy =    21.5085
   XX=     3.0308   YX=    -0.6048   ZX=    -0.4032
   XY=    -0.6176   YY=     2.4437   ZY=    -0.6625
   XZ=     0.2139   YZ=     0.3408   ZZ=    24.2434
   Eigenvalues:     2.0576     3.4153    24.2450
     77  Bq   Isotropic =    11.8973   Anisotropy =    23.0312
   XX=     4.5482   YX=    -0.6094   ZX=     0.0662
   XY=    -0.6145   YY=     3.9596   ZY=     0.0812
   XZ=     1.2806   YZ=     2.0552   ZZ=    27.1841
   Eigenvalues:     3.5076     4.9330    27.2514
     78  Bq   Isotropic =    13.4831   Anisotropy =    23.7427
   XX=     6.0220   YX=    -0.3711   ZX=     0.7353
   XY=    -0.3697   YY=     5.6689   ZY=     1.1554
   XZ=     3.1178   YZ=     5.0083   ZZ=    28.7583
   Eigenvalues:     4.8819     6.2558    29.3115
     79  Bq   Isotropic =    13.7705   Anisotropy =    23.0649
   XX=     7.0119   YX=    -0.0278   ZX=     1.3971
   XY=    -0.0203   YY=     6.9980   ZY=     2.2252
   XZ=     5.3707   YZ=     8.6299   ZZ=    27.3015
   Eigenvalues:     5.1348     7.0296    29.1470
 g value of the free electron [g_e]: 0.20023193D+01
 relativistic mass correction [g_RMC]:-0.59644198D-03
 diamagnetic correction to g tensor [g_DC]:
   XX= 0.25757067D-03   YX= 0.28712994D-05   ZX=-0.16457382D-15
   XY= 0.28727743D-05   YY= 0.26042604D-03   ZY=-0.16146564D-15
   XZ= 0.19343178D-14   YZ=-0.12799927D-15   ZZ= 0.12179378D-03
 orbital Zeeman and spin-orbit coupling contribution to g tensor [g_OZ/SOC]:
   XX= 0.25851176D-02   YX= 0.88311928D-04   ZX= 0.15687271D-15
   XY= 0.88130300D-04   YY= 0.26694551D-02   ZY= 0.10280418D-15
   XZ=-0.47012871D-14   YZ= 0.40636101D-14   ZZ=-0.14255638D-03
 g tensor [g = g_e + g_RMC + g_DC + g_OZ/SOC]:
   XX= 0.20045656D+01   YX= 0.91183227D-04   ZX=-0.77011080D-17
   XY= 0.91003074D-04   YY= 0.20046527D+01   ZY=-0.58661455D-16
   XZ=-0.27669693D-14   YZ= 0.39356108D-14   ZZ= 0.20017021D+01
 g shifts relative to the free electron (ppm):
   xx=         -617.2   yy=         2188.9   zz=         2390.8
 End of Minotr F.D. properties file   721 does not exist.
 End of Minotr F.D. properties file   722 does not exist.
 End of Minotr F.D. properties file   788 does not exist.
 Leave Link 1002 at Wed Mar 15 11:25:02 2023, MaxMem=  1342177280 cpu:            2571.5 elap:             327.6
 (Enter /home/wangzhe/g16/l601.exe)
 Copying SCF densities to generalized density rwf, IOpCl= 1 IROHF=0.

 **********************************************************************

            Population analysis using the SCF Density.

 **********************************************************************

 Alpha  occ. eigenvalues --  -10.19563 -10.19561 -10.19516 -10.19513 -10.19153
 Alpha  occ. eigenvalues --  -10.19153 -10.19107 -10.19107 -10.18624 -10.18621
 Alpha  occ. eigenvalues --  -10.18596 -10.18596 -10.18569 -10.18569 -10.18541
 Alpha  occ. eigenvalues --  -10.18540 -10.18510 -10.18510  -0.92528  -0.90415
 Alpha  occ. eigenvalues --   -0.85324  -0.82751  -0.77370  -0.77170  -0.76232
 Alpha  occ. eigenvalues --   -0.75248  -0.70173  -0.67482  -0.63129  -0.60378
 Alpha  occ. eigenvalues --   -0.59709  -0.57401  -0.56127  -0.53836  -0.51880
 Alpha  occ. eigenvalues --   -0.48768  -0.48168  -0.47398  -0.46049  -0.45937
 Alpha  occ. eigenvalues --   -0.44356  -0.43737  -0.43026  -0.41995  -0.41140
 Alpha  occ. eigenvalues --   -0.41027  -0.39029  -0.36671  -0.36256  -0.35244
 Alpha  occ. eigenvalues --   -0.34075  -0.33992  -0.33283  -0.32654  -0.29914
 Alpha  occ. eigenvalues --   -0.27921  -0.26020  -0.25875  -0.20172  -0.12585
 Alpha virt. eigenvalues --   -0.05702  -0.03983  -0.00831   0.00075   0.00569
 Alpha virt. eigenvalues --    0.01244   0.01808   0.02003   0.02267   0.02619
 Alpha virt. eigenvalues --    0.03530   0.03751   0.04629   0.05178   0.05184
 Alpha virt. eigenvalues --    0.05873   0.06105   0.06119   0.06169   0.08065
 Alpha virt. eigenvalues --    0.08095   0.08139   0.08291   0.08788   0.09175
 Alpha virt. eigenvalues --    0.10203   0.10903   0.10939   0.11159   0.11194
 Alpha virt. eigenvalues --    0.12990   0.13139   0.13307   0.13824   0.14063
 Alpha virt. eigenvalues --    0.14303   0.14856   0.15345   0.15403   0.15512
 Alpha virt. eigenvalues --    0.15589   0.16139   0.16402   0.17190   0.17238
 Alpha virt. eigenvalues --    0.17841   0.18017   0.18373   0.18683   0.19041
 Alpha virt. eigenvalues --    0.19385   0.19543   0.19619   0.20554   0.20844
 Alpha virt. eigenvalues --    0.20846   0.20886   0.20905   0.21520   0.21695
 Alpha virt. eigenvalues --    0.22146   0.22349   0.22939   0.23315   0.23481
 Alpha virt. eigenvalues --    0.23763   0.23832   0.24038   0.25257   0.25521
 Alpha virt. eigenvalues --    0.26025   0.26163   0.27110   0.27306   0.27854
 Alpha virt. eigenvalues --    0.28207   0.28783   0.29497   0.29654   0.30420
 Alpha virt. eigenvalues --    0.30879   0.31770   0.31890   0.31975   0.32976
 Alpha virt. eigenvalues --    0.33554   0.34761   0.35110   0.36244   0.39554
 Alpha virt. eigenvalues --    0.39720   0.39931   0.41613   0.41912   0.42720
 Alpha virt. eigenvalues --    0.43521   0.44509   0.46109   0.46168   0.46404
 Alpha virt. eigenvalues --    0.48306   0.48353   0.49689   0.49728   0.50436
 Alpha virt. eigenvalues --    0.50922   0.50978   0.51093   0.51950   0.52957
 Alpha virt. eigenvalues --    0.52959   0.53374   0.53841   0.54368   0.54606
 Alpha virt. eigenvalues --    0.54722   0.54995   0.55156   0.55446   0.56856
 Alpha virt. eigenvalues --    0.57465   0.57962   0.58312   0.58545   0.59976
 Alpha virt. eigenvalues --    0.60100   0.61044   0.61088   0.62002   0.62205
 Alpha virt. eigenvalues --    0.62726   0.63110   0.63130   0.63361   0.63870
 Alpha virt. eigenvalues --    0.64043   0.64063   0.64875   0.65988   0.66706
 Alpha virt. eigenvalues --    0.66861   0.67056   0.67163   0.68212   0.68912
 Alpha virt. eigenvalues --    0.69533   0.70582   0.71004   0.72530   0.73443
 Alpha virt. eigenvalues --    0.73760   0.74313   0.74660   0.74821   0.76554
 Alpha virt. eigenvalues --    0.76779   0.76803   0.77671   0.77729   0.77997
 Alpha virt. eigenvalues --    0.79080   0.79167   0.79921   0.79992   0.81782
 Alpha virt. eigenvalues --    0.81797   0.81848   0.82112   0.83262   0.83781
 Alpha virt. eigenvalues --    0.85182   0.85184   0.85580   0.86404   0.86600
 Alpha virt. eigenvalues --    0.88108   0.88753   0.89137   0.90400   0.90501
 Alpha virt. eigenvalues --    0.91244   0.92470   0.92684   0.95266   0.95736
 Alpha virt. eigenvalues --    0.96564   0.97791   0.98807   1.00707   1.02068
 Alpha virt. eigenvalues --    1.05310   1.06392   1.06663   1.07660   1.08825
 Alpha virt. eigenvalues --    1.09913   1.10365   1.10470   1.11686   1.13103
 Alpha virt. eigenvalues --    1.14231   1.14877   1.15110   1.15370   1.16685
 Alpha virt. eigenvalues --    1.19305   1.20156   1.20673   1.20708   1.20919
 Alpha virt. eigenvalues --    1.21624   1.21721   1.24959   1.25800   1.26616
 Alpha virt. eigenvalues --    1.26621   1.27074   1.29876   1.29923   1.30362
 Alpha virt. eigenvalues --    1.30484   1.31089   1.32015   1.32713   1.33421
 Alpha virt. eigenvalues --    1.34402   1.36117   1.36373   1.37494   1.39055
 Alpha virt. eigenvalues --    1.40086   1.40383   1.40589   1.44138   1.44362
 Alpha virt. eigenvalues --    1.46490   1.47492   1.47584   1.47683   1.49257
 Alpha virt. eigenvalues --    1.50496   1.51193   1.51515   1.52526   1.52739
 Alpha virt. eigenvalues --    1.53727   1.54629   1.55502   1.55925   1.56396
 Alpha virt. eigenvalues --    1.57313   1.59186   1.60445   1.66131   1.67098
 Alpha virt. eigenvalues --    1.67667   1.68827   1.69516   1.70501   1.72150
 Alpha virt. eigenvalues --    1.72939   1.76249   1.77048   1.77081   1.81834
 Alpha virt. eigenvalues --    1.82752   1.85252   1.89151   1.90575   1.90936
 Alpha virt. eigenvalues --    1.91013   1.97161   1.98778   2.00093   2.00108
 Alpha virt. eigenvalues --    2.00451   2.02767   2.09100   2.12654   2.13772
 Alpha virt. eigenvalues --    2.15755   2.17324   2.19497   2.20075   2.27335
 Alpha virt. eigenvalues --    2.27894   2.29161   2.30475   2.41255   2.43815
 Alpha virt. eigenvalues --    2.45841   2.52240   2.55501   2.57804   2.58653
 Alpha virt. eigenvalues --    2.60767   2.61357   2.63098   2.63859   2.64194
 Alpha virt. eigenvalues --    2.67373   2.68093   2.68968   2.69699   2.73414
 Alpha virt. eigenvalues --    2.74022   2.74766   2.74834   2.74852   2.75942
 Alpha virt. eigenvalues --    2.76025   2.76262   2.78589   2.80699   2.81449
 Alpha virt. eigenvalues --    2.82056   2.83168   2.83311   2.84789   2.85779
 Alpha virt. eigenvalues --    2.86653   2.88831   2.90794   2.91943   2.95417
 Alpha virt. eigenvalues --    2.96497   3.01867   3.01946   3.02407   3.04623
 Alpha virt. eigenvalues --    3.08010   3.08656   3.10057   3.10852   3.11930
 Alpha virt. eigenvalues --    3.12383   3.12771   3.13327   3.13731   3.16960
 Alpha virt. eigenvalues --    3.17395   3.17408   3.21647   3.21829   3.21970
 Alpha virt. eigenvalues --    3.22146   3.24628   3.24823   3.26641   3.28069
 Alpha virt. eigenvalues --    3.29292   3.30250   3.30511   3.30706   3.31357
 Alpha virt. eigenvalues --    3.31401   3.32701   3.33664   3.34008   3.34328
 Alpha virt. eigenvalues --    3.35117   3.35662   3.36442   3.36764   3.37142
 Alpha virt. eigenvalues --    3.40374   3.41316   3.41890   3.45370   3.46214
 Alpha virt. eigenvalues --    3.47196   3.48946   3.49078   3.51024   3.52103
 Alpha virt. eigenvalues --    3.52215   3.52922   3.53528   3.53718   3.54279
 Alpha virt. eigenvalues --    3.54486   3.55114   3.56198   3.56478   3.57916
 Alpha virt. eigenvalues --    3.59482   3.60409   3.60784   3.61443   3.61663
 Alpha virt. eigenvalues --    3.62228   3.62307   3.62309   3.62745   3.64039
 Alpha virt. eigenvalues --    3.66264   3.67241   3.68798   3.69372   3.73466
 Alpha virt. eigenvalues --    3.73845   3.74362   3.74978   3.76236   3.76904
 Alpha virt. eigenvalues --    3.76988   3.77785   3.78062   3.78359   3.79780
 Alpha virt. eigenvalues --    3.80036   3.81633   3.82417   3.84344   3.85137
 Alpha virt. eigenvalues --    3.85973   3.87120   3.88492   3.90060   3.90473
 Alpha virt. eigenvalues --    3.93715   3.95303   3.95806   3.97280   4.00362
 Alpha virt. eigenvalues --    4.00775   4.03322   4.04096   4.05007   4.07541
 Alpha virt. eigenvalues --    4.09350   4.10722   4.11465   4.12065   4.15763
 Alpha virt. eigenvalues --    4.22301   4.28362   4.31763   4.34953   4.37730
 Alpha virt. eigenvalues --    4.42533   4.46569   4.48965   4.48985   4.51160
 Alpha virt. eigenvalues --    4.60560   4.61178   4.63449   4.66112   4.68833
 Alpha virt. eigenvalues --    4.79513   4.82809   4.90557   4.98844   5.02825
 Alpha virt. eigenvalues --    5.25046   5.26596   5.28223  23.62584  23.70495
 Alpha virt. eigenvalues --   23.80231  23.98679  23.99263  24.01005  24.03834
 Alpha virt. eigenvalues --   24.06294  24.06329  24.07679  24.08921  24.10001
 Alpha virt. eigenvalues --   24.18979  24.22323  24.27798  24.36545  24.43949
 Alpha virt. eigenvalues --   24.51098
  Beta  occ. eigenvalues --  -10.19036 -10.19032 -10.19006 -10.19004 -10.18994
  Beta  occ. eigenvalues --  -10.18985 -10.18960 -10.18957 -10.18819 -10.18819
  Beta  occ. eigenvalues --  -10.18526 -10.18526 -10.18525 -10.18525 -10.18423
  Beta  occ. eigenvalues --  -10.18423 -10.18364 -10.18364  -0.91582  -0.89659
  Beta  occ. eigenvalues --   -0.84810  -0.82045  -0.76970  -0.76849  -0.75897
  Beta  occ. eigenvalues --   -0.75006  -0.69393  -0.67145  -0.62226  -0.59954
  Beta  occ. eigenvalues --   -0.59176  -0.57230  -0.55359  -0.53712  -0.51581
  Beta  occ. eigenvalues --   -0.48501  -0.47727  -0.47237  -0.45984  -0.45796
  Beta  occ. eigenvalues --   -0.44175  -0.42772  -0.41758  -0.41406  -0.40937
  Beta  occ. eigenvalues --   -0.39187  -0.38512  -0.36402  -0.34949  -0.34680
  Beta  occ. eigenvalues --   -0.33782  -0.33633  -0.33065  -0.29936  -0.28571
  Beta  occ. eigenvalues --   -0.26811  -0.25312  -0.24132
  Beta virt. eigenvalues --   -0.13861  -0.06210  -0.04983  -0.02107   0.00096
  Beta virt. eigenvalues --    0.00458   0.00579   0.01225   0.01828   0.02261
  Beta virt. eigenvalues --    0.03526   0.03763   0.03810   0.04713   0.04794
  Beta virt. eigenvalues --    0.05173   0.05229   0.06006   0.06166   0.06195
  Beta virt. eigenvalues --    0.06520   0.08186   0.08212   0.08278   0.08374
  Beta virt. eigenvalues --    0.08799   0.09936   0.10291   0.11015   0.11120
  Beta virt. eigenvalues --    0.11378   0.11620   0.13110   0.13304   0.13335
  Beta virt. eigenvalues --    0.14313   0.14383   0.14414   0.14947   0.15370
  Beta virt. eigenvalues --    0.15401   0.15559   0.15580   0.16277   0.17059
  Beta virt. eigenvalues --    0.17259   0.17384   0.18155   0.18394   0.18727
  Beta virt. eigenvalues --    0.19047   0.19404   0.19585   0.19695   0.19829
  Beta virt. eigenvalues --    0.20638   0.20895   0.21042   0.21159   0.21234
  Beta virt. eigenvalues --    0.21724   0.21795   0.22421   0.22663   0.23519
  Beta virt. eigenvalues --    0.23524   0.23943   0.24140   0.24179   0.25013
  Beta virt. eigenvalues --    0.25302   0.25557   0.26061   0.26133   0.27254
  Beta virt. eigenvalues --    0.27423   0.28008   0.28318   0.29134   0.29661
  Beta virt. eigenvalues --    0.29820   0.30581   0.30954   0.31988   0.32008
  Beta virt. eigenvalues --    0.32153   0.33431   0.33602   0.34975   0.35386
[...]
 --------------------------------------------------------
     1   Atom        0.000753      0.003833     -0.004586
     2   Atom       -0.022808     -0.013390      0.036198
     3   Atom       -0.016562     -0.019649      0.036211
     4   Atom       -0.083723     -0.056046      0.139769
     5   Atom       -0.067605     -0.065083      0.132688
     6   Atom       -0.065954     -0.066720      0.132674
     7   Atom       -0.063407     -0.076381      0.139788
     8   Atom       -0.009950      0.012381     -0.002431
     9   Atom        0.007745     -0.005314     -0.002431
    10   Atom        0.006821     -0.002235     -0.004586
    11   Atom       -0.228175     -0.224793      0.452968
    12   Atom       -0.228175     -0.224793      0.452968
    13   Atom        0.066475      0.071113     -0.137588
    14   Atom       -0.223747     -0.229231      0.452979
    15   Atom        0.066475      0.071113     -0.137588
    16   Atom       -0.223747     -0.229231      0.452979
    17   Atom        0.002702      0.005601     -0.008303
    18   Atom        0.002702      0.005601     -0.008303
    19   Atom       -0.083723     -0.056046      0.139769
    20   Atom       -0.065954     -0.066720      0.132674
    21   Atom       -0.063407     -0.076381      0.139788
    22   Atom       -0.022808     -0.013390      0.036198
    23   Atom       -0.067605     -0.065083      0.132688
    24   Atom       -0.016562     -0.019649      0.036211
    25   Atom        0.000753      0.003833     -0.004586
    26   Atom       -0.009950      0.012381     -0.002431
    27   Atom        0.006821     -0.002235     -0.004586
    28   Atom        0.007745     -0.005314     -0.002431
    29   Atom        0.002664     -0.005743      0.003079
    30   Atom        0.002203     -0.003038      0.000835
    31   Atom        0.001390      0.001372     -0.002762
    32   Atom        0.000568      0.005349     -0.005917
    33   Atom        0.000019      0.007818     -0.007837
    34   Atom       -0.000138      0.008851     -0.008713
    35   Atom        0.000093      0.008866     -0.008958
    36   Atom        0.000660      0.008074     -0.008733
    37   Atom        0.001507      0.006432     -0.007939
    38   Atom        0.002542      0.004005     -0.006547
    39   Atom        0.003571      0.001533     -0.005104
    40   Atom        0.004325      0.000568     -0.004893
    41   Atom        0.004622      0.002387     -0.007009
    42   Atom        0.004590      0.006374     -0.010964
    43   Atom        0.004682      0.010017     -0.014699
    44   Atom        0.005435      0.010545     -0.015981
    45   Atom        0.007130      0.006225     -0.013356
    46   Atom        0.009520     -0.002897     -0.006623
    47   Atom        0.011712     -0.013873      0.002160
    48   Atom        0.012440     -0.020856      0.008417
    49   Atom        0.010813     -0.018920      0.008107
    50   Atom        0.007022     -0.008810      0.001788
    51   Atom        0.002235      0.003973     -0.006208
    52   Atom       -0.002162      0.014407     -0.012246
    53   Atom       -0.005185      0.020623     -0.015438
    54   Atom       -0.006357      0.022799     -0.016442
    55   Atom       -0.005541      0.021299     -0.015757
    56   Atom       -0.002830      0.015853     -0.013023
    57   Atom        0.001375      0.006130     -0.007505
    58   Atom        0.006188     -0.006516      0.000328
    59   Atom        0.010263     -0.017572      0.007309
    60   Atom        0.012331     -0.021236      0.008905
    61   Atom        0.011989     -0.015621      0.003632
    62   Atom        0.009966     -0.004886     -0.005080
    63   Atom        0.007528      0.004892     -0.012420
    64   Atom        0.005671      0.010151     -0.015822
    65   Atom        0.004756      0.010411     -0.015167
    66   Atom        0.004581      0.007146     -0.011727
    67   Atom        0.004631      0.003003     -0.007634
    68   Atom        0.004413      0.000677     -0.005091
    69   Atom        0.003735      0.001196     -0.004932
    70   Atom        0.002736      0.003525     -0.006260
    71   Atom        0.001685      0.006042     -0.007726
    72   Atom        0.000794      0.007843     -0.008636
    73   Atom        0.000172      0.008781     -0.008953
    74   Atom       -0.000123      0.008918     -0.008795
    75   Atom       -0.000039      0.008099     -0.008060
    76   Atom        0.000443      0.005916     -0.006359
    77   Atom        0.001232      0.002174     -0.003405
    78   Atom        0.002072     -0.002300      0.000227
    79   Atom        0.002619     -0.005472      0.002853
 --------------------------------------------------------
                        XY            XZ            YZ
 --------------------------------------------------------
     1   Atom       -0.004528      0.000000     -0.000000
     2   Atom        0.001677     -0.000000      0.000000
     3   Atom        0.004753     -0.000000     -0.000000
     4   Atom        0.002465     -0.000000     -0.000000
     5   Atom        0.000487      0.000000     -0.000000
     6   Atom        0.001296     -0.000000      0.000000
     7   Atom        0.012471     -0.000000     -0.000000
     8   Atom        0.000352      0.000000      0.000000
     9   Atom        0.009063     -0.000000      0.000000
    10   Atom       -0.001541      0.000000     -0.000000
    11   Atom       -0.002157      0.000000      0.000000
    12   Atom       -0.002157      0.000000     -0.000000
    13   Atom        0.004708     -0.000000     -0.000000
    14   Atom        0.000025     -0.000000     -0.000000
    15   Atom        0.004708     -0.000000      0.000000
    16   Atom        0.000025      0.000000     -0.000000
    17   Atom        0.002948     -0.000000      0.000000
    18   Atom        0.002948      0.000000     -0.000000
    19   Atom        0.002465      0.000000      0.000000
    20   Atom        0.001296      0.000000      0.000000
    21   Atom        0.012471      0.000000      0.000000
    22   Atom        0.001677      0.000000     -0.000000
    23   Atom        0.000487     -0.000000     -0.000000
    24   Atom        0.004753      0.000000      0.000000
    25   Atom       -0.004528      0.000000     -0.000000
    26   Atom        0.000352      0.000000      0.000000
    27   Atom       -0.001541     -0.000000      0.000000
    28   Atom        0.009063     -0.000000     -0.000000
    29   Atom       -0.008538     -0.000371     -0.000594
    30   Atom       -0.005323      0.002692      0.004328
    31   Atom       -0.000019      0.003983      0.006401
    32   Atom        0.004854      0.003417      0.005492
    33   Atom        0.007920      0.001779      0.002858
    34   Atom        0.009128     -0.000191     -0.000308
    35   Atom        0.008910     -0.002138     -0.003436
    36   Atom        0.007530     -0.003947     -0.006342
    37   Atom        0.005001     -0.005455     -0.008766
    38   Atom        0.001485     -0.006271     -0.010078
    39   Atom       -0.002071     -0.005912     -0.009501
    40   Atom       -0.003817     -0.004389     -0.007055
    41   Atom       -0.002272     -0.002779     -0.004469
    42   Atom        0.001812     -0.002729     -0.004387
    43   Atom        0.005418     -0.005091     -0.008184
    44   Atom        0.005190     -0.009251     -0.014869
    45   Atom       -0.000919     -0.013423     -0.021573
    46   Atom       -0.012611     -0.015106     -0.024276
    47   Atom       -0.025984     -0.011931     -0.019174
    48   Atom       -0.033815     -0.003643     -0.005856
    49   Atom       -0.030195      0.006434      0.010338
    50   Atom       -0.016078      0.013473      0.021652
    51   Atom        0.001766      0.015074      0.024224
    52   Atom        0.016829      0.012146      0.019518
    53   Atom        0.026212      0.006795      0.010919
    54   Atom        0.029613      0.000574      0.000923
    55   Atom        0.027261     -0.005704     -0.009166
    56   Atom        0.018976     -0.011300     -0.018160
    57   Atom        0.004830     -0.014820     -0.023816
    58   Atom       -0.012901     -0.014174     -0.022778
    59   Atom       -0.028269     -0.008051     -0.012938
    60   Atom       -0.034090      0.001809      0.002908
    61   Atom       -0.028040      0.010761      0.017296
    62   Atom       -0.015085      0.014941      0.024012
    63   Atom       -0.002678      0.013991      0.022485
    64   Atom        0.004550      0.010071      0.016185
    65   Atom        0.005744      0.005750      0.009242
    66   Atom        0.002605      0.002976      0.004784
    67   Atom       -0.001655      0.002612      0.004200
    68   Atom       -0.003796      0.004057      0.006521
    69   Atom       -0.002581      0.005706      0.009171
    70   Atom        0.000800      0.006304      0.010131
    71   Atom        0.004424      0.005669      0.009109
    72   Atom        0.007158      0.004250      0.006829
    73   Atom        0.008744      0.002478      0.003982
    74   Atom        0.009182      0.000550      0.000884
    75   Atom        0.008264     -0.001431     -0.002300
    76   Atom        0.005557     -0.003174     -0.005102
    77   Atom        0.000955     -0.004001     -0.006430
    78   Atom       -0.004442     -0.003078     -0.004947
    79   Atom       -0.008217     -0.000265     -0.000428
 --------------------------------------------------------


 ---------------------------------------------------------------------------------
              Anisotropic Spin Dipole Couplings in Principal Axis System
 ---------------------------------------------------------------------------------

       Atom             a.u.   MegaHertz   Gauss  10(-4) cm-1        Axes

              Baa    -0.0046    -2.447    -0.873    -0.816 -0.0000 -0.0000  1.0000
     1 H(1)   Bbb    -0.0025    -1.328    -0.474    -0.443  0.8130  0.5822  0.0000
              Bcc     0.0071     3.775     1.347     1.259 -0.5822  0.8130 -0.0000
 
              Baa    -0.0231    -3.100    -1.106    -1.034  0.9854 -0.1702  0.0000
     2 C(13)  Bbb    -0.0131    -1.758    -0.627    -0.586  0.1702  0.9854 -0.0000
              Bcc     0.0362     4.857     1.733     1.620 -0.0000  0.0000  1.0000
 
              Baa    -0.0231    -3.100    -1.106    -1.034 -0.5879  0.8089 -0.0000
     3 C(13)  Bbb    -0.0131    -1.759    -0.628    -0.587  0.8089  0.5879  0.0000
              Bcc     0.0362     4.859     1.734     1.621 -0.0000 -0.0000  1.0000
 
              Baa    -0.0839   -11.264    -4.019    -3.757  0.9961 -0.0880  0.0000
     4 C(13)  Bbb    -0.0558    -7.492    -2.673    -2.499  0.0880  0.9961  0.0000
              Bcc     0.1398    18.756     6.692     6.256 -0.0000 -0.0000  1.0000
 
              Baa    -0.0677    -9.084    -3.241    -3.030  0.9831 -0.1833 -0.0000
     5 C(13)  Bbb    -0.0650    -8.721    -3.112    -2.909  0.1833  0.9831  0.0000
              Bcc     0.1327    17.805     6.353     5.939  0.0000 -0.0000  1.0000
 
              Baa    -0.0677    -9.083    -3.241    -3.030 -0.5987  0.8010 -0.0000
     6 C(13)  Bbb    -0.0650    -8.720    -3.112    -2.909  0.8010  0.5987 -0.0000
              Bcc     0.1327    17.804     6.353     5.939 -0.0000  0.0000  1.0000
 
              Baa    -0.0840   -11.265    -4.020    -3.758 -0.5189  0.8548 -0.0000
     7 C(13)  Bbb    -0.0558    -7.493    -2.674    -2.499  0.8548  0.5189  0.0000
              Bcc     0.1398    18.758     6.693     6.257 -0.0000 -0.0000  1.0000
 
              Baa    -0.0100    -5.312    -1.895    -1.772  0.9999 -0.0158 -0.0000
     8 H(1)   Bbb    -0.0024    -1.297    -0.463    -0.433  0.0000 -0.0000  1.0000
              Bcc     0.0124     6.609     2.358     2.204  0.0158  0.9999  0.0000
 
              Baa    -0.0100    -5.311    -1.895    -1.772 -0.4558  0.8901 -0.0000
     9 H(1)   Bbb    -0.0024    -1.297    -0.463    -0.433 -0.0000  0.0000  1.0000
              Bcc     0.0124     6.608     2.358     2.204  0.8901  0.4558 -0.0000
 
              Baa    -0.0046    -2.447    -0.873    -0.816 -0.0000  0.0000  1.0000
    10 H(1)   Bbb    -0.0025    -1.329    -0.474    -0.443  0.1633  0.9866 -0.0000
              Bcc     0.0071     3.775     1.347     1.259  0.9866 -0.1633  0.0000
 
              Baa    -0.2292   -30.760   -10.976   -10.260  0.8992  0.4376 -0.0000
    11 C(13)  Bbb    -0.2237   -30.024   -10.713   -10.015 -0.4376  0.8992 -0.0000
              Bcc     0.4530    60.784    21.689    20.275  0.0000  0.0000  1.0000
 
              Baa    -0.2292   -30.760   -10.976   -10.260  0.8992  0.4376 -0.0000
    12 C(13)  Bbb    -0.2237   -30.024   -10.713   -10.015 -0.4376  0.8992  0.0000
              Bcc     0.4530    60.784    21.689    20.275  0.0000 -0.0000  1.0000
 
              Baa    -0.1376   -18.463    -6.588    -6.159  0.0000  0.0000  1.0000
    13 C(13)  Bbb     0.0635     8.527     3.043     2.844  0.8491 -0.5283 -0.0000
              Bcc     0.0740     9.936     3.545     3.314  0.5283  0.8491 -0.0000
 
              Baa    -0.2292   -30.761   -10.976   -10.261 -0.0046  1.0000  0.0000
    14 C(13)  Bbb    -0.2237   -30.025   -10.714   -10.015  1.0000  0.0046  0.0000
              Bcc     0.4530    60.785    21.690    20.276 -0.0000 -0.0000  1.0000
 
              Baa    -0.1376   -18.463    -6.588    -6.159  0.0000 -0.0000  1.0000
    15 C(13)  Bbb     0.0635     8.527     3.043     2.844  0.8491 -0.5283 -0.0000
              Bcc     0.0740     9.936     3.545     3.314  0.5283  0.8491 -0.0000
 
              Baa    -0.2292   -30.761   -10.976   -10.261 -0.0046  1.0000  0.0000
    16 C(13)  Bbb    -0.2237   -30.025   -10.714   -10.015  1.0000  0.0046 -0.0000
              Bcc     0.4530    60.785    21.690    20.276  0.0000 -0.0000  1.0000
 
              Baa    -0.0083    -4.430    -1.581    -1.478  0.0000 -0.0000  1.0000
    17 H(1)   Bbb     0.0009     0.463     0.165     0.154  0.8489 -0.5286 -0.0000
              Bcc     0.0074     3.968     1.416     1.323  0.5286  0.8489  0.0000
 
              Baa    -0.0083    -4.430    -1.581    -1.478 -0.0000  0.0000  1.0000
    18 H(1)   Bbb     0.0009     0.463     0.165     0.154  0.8489 -0.5286  0.0000
              Bcc     0.0074     3.968     1.416     1.323  0.5286  0.8489 -0.0000
 
              Baa    -0.0839   -11.264    -4.019    -3.757  0.9961 -0.0880 -0.0000
    19 C(13)  Bbb    -0.0558    -7.492    -2.673    -2.499  0.0880  0.9961 -0.0000
              Bcc     0.1398    18.756     6.692     6.256  0.0000  0.0000  1.0000
 
              Baa    -0.0677    -9.083    -3.241    -3.030 -0.5987  0.8010 -0.0000
    20 C(13)  Bbb    -0.0650    -8.720    -3.112    -2.909  0.8010  0.5987 -0.0000
              Bcc     0.1327    17.804     6.353     5.939  0.0000  0.0000  1.0000
 
              Baa    -0.0840   -11.265    -4.020    -3.758 -0.5189  0.8548  0.0000
    21 C(13)  Bbb    -0.0558    -7.493    -2.674    -2.499  0.8548  0.5189 -0.0000
              Bcc     0.1398    18.758     6.693     6.257  0.0000  0.0000  1.0000
 
              Baa    -0.0231    -3.100    -1.106    -1.034  0.9854 -0.1702 -0.0000
    22 C(13)  Bbb    -0.0131    -1.758    -0.627    -0.586  0.1702  0.9854  0.0000
              Bcc     0.0362     4.857     1.733     1.620  0.0000 -0.0000  1.0000
 
              Baa    -0.0677    -9.084    -3.241    -3.030  0.9831 -0.1833  0.0000
    23 C(13)  Bbb    -0.0650    -8.721    -3.112    -2.909  0.1833  0.9831  0.0000
              Bcc     0.1327    17.805     6.353     5.939 -0.0000 -0.0000  1.0000
 
              Baa    -0.0231    -3.100    -1.106    -1.034 -0.5879  0.8089  0.0000
    24 C(13)  Bbb    -0.0131    -1.759    -0.628    -0.587  0.8089  0.5879 -0.0000
              Bcc     0.0362     4.859     1.734     1.621  0.0000  0.0000  1.0000
 
              Baa    -0.0046    -2.447    -0.873    -0.816 -0.0000 -0.0000  1.0000
    25 H(1)   Bbb    -0.0025    -1.328    -0.474    -0.443  0.8130  0.5822  0.0000
              Bcc     0.0071     3.775     1.347     1.259 -0.5822  0.8130 -0.0000
 
              Baa    -0.0100    -5.312    -1.895    -1.772  0.9999 -0.0158 -0.0000
    26 H(1)   Bbb    -0.0024    -1.297    -0.463    -0.433  0.0000 -0.0000  1.0000
              Bcc     0.0124     6.609     2.358     2.204  0.0158  0.9999  0.0000
 
              Baa    -0.0046    -2.447    -0.873    -0.816 -0.0000 -0.0000  1.0000
    27 H(1)   Bbb    -0.0025    -1.329    -0.474    -0.443  0.1633  0.9866  0.0000
              Bcc     0.0071     3.775     1.347     1.259  0.9866 -0.1633 -0.0000
 
              Baa    -0.0100    -5.311    -1.895    -1.772 -0.4558  0.8901 -0.0000
    28 H(1)   Bbb    -0.0024    -1.297    -0.463    -0.433  0.0000  0.0000  1.0000
              Bcc     0.0124     6.608     2.358     2.204  0.8901  0.4558 -0.0000
 

 ---------------------------------------------------------------------------------

 Calculating spin-rotation constants.
 Leave Link  601 at Wed Mar 15 11:25:36 2023, MaxMem=  1342177280 cpu:              44.1 elap:              34.1
 (Enter /home/wangzhe/g16/l9999.exe)
 1\1\GINC-RHEL-HPC\SP\UB3LYP\6-311+G(2d,p)\C18H10(3)\WANGZHE\15-Mar-202
 3\0\\#p nmr=giao ub3lyp/6-311+g(2d,p) geom=connectivity\\File Created 
 by py.Aroma 3\\0,3\H,0,-0.120733,4.586719,0.\C,0,0.790413,3.998293,0.\
 C,0,3.238257,2.475076,0.\C,0,0.80373,2.632959,0.\C,0,2.064461,4.625664
 ,0.\C,0,3.238257,3.895229,0.\C,0,2.007437,1.883896,0.\H,0,2.1168,5.709
 84,0.\H,0,4.18784,4.421064,0.\H,0,4.168621,1.917515,0.\C,0,0.008734,1.
 349887,0.\C,0,-0.008734,-1.349887,0.\C,0,-1.260025,0.784186,0.\C,0,1.2
 0733,0.603974,0.\C,0,1.260025,-0.784186,0.\C,0,-1.20733,-0.603974,0.\H
 ,0,-2.180164,1.356936,0.\H,0,2.180164,-1.356936,0.\C,0,-0.80373,-2.632
 959,0.\C,0,-3.238257,-3.895229,0.\C,0,-2.007437,-1.883896,0.\C,0,-0.79
 0413,-3.998293,0.\C,0,-2.064461,-4.625664,0.\C,0,-3.238257,-2.475076,0
 .\H,0,0.120733,-4.586719,0.\H,0,-2.1168,-5.70984,0.\H,0,-4.168621,-1.9
 17515,0.\H,0,-4.18784,-4.421064,0.\Bq,0,-2.651359,-4.260446,1.\Bq,0,-2
 .545694,-4.090638,1.\Bq,0,-2.440029,-3.92083,1.\Bq,0,-2.334364,-3.7510
 21,1.\Bq,0,-2.228699,-3.581213,1.\Bq,0,-2.123034,-3.411404,1.\Bq,0,-2.
 017369,-3.241596,1.\Bq,0,-1.911704,-3.071787,1.\Bq,0,-1.806039,-2.9019
 79,1.\Bq,0,-1.700374,-2.73217,1.\Bq,0,-1.594709,-2.562362,1.\Bq,0,-1.4
 89045,-2.392553,1.\Bq,0,-1.383377,-2.222746,1.\Bq,0,-1.2777,-2.052946,
 1.\Bq,0,-1.172023,-1.883145,1.\Bq,0,-1.066346,-1.713344,1.\Bq,0,-0.960
 668,-1.543543,1.\Bq,0,-0.854991,-1.373742,1.\Bq,0,-0.749314,-1.203941,
 1.\Bq,0,-0.643637,-1.03414,1.\Bq,0,-0.537957,-0.864341,1.\Bq,0,-0.4322
 76,-0.694542,1.\Bq,0,-0.326595,-0.524744,1.\Bq,0,-0.220914,-0.354945,1
 .\Bq,0,-0.115234,-0.185147,1.\Bq,0,-0.009553,-0.015348,1.\Bq,0,0.09612
 8,0.15445,1.\Bq,0,0.201809,0.324249,1.\Bq,0,0.30749,0.494047,1.\Bq,0,0
 .413171,0.663846,1.\Bq,0,0.518852,0.833644,1.\Bq,0,0.624532,1.003443,1
 .\Bq,0,0.73021,1.173244,1.\Bq,0,0.835887,1.343045,1.\Bq,0,0.941564,1.5
 12846,1.\Bq,0,1.047241,1.682647,1.\Bq,0,1.152918,1.852448,1.\Bq,0,1.25
 8595,2.022249,1.\Bq,0,1.364272,2.192049,1.\Bq,0,1.469942,2.361855,1.\B
 q,0,1.575607,2.531663,1.\Bq,0,1.681272,2.701472,1.\Bq,0,1.786937,2.871
 28,1.\Bq,0,1.892602,3.041089,1.\Bq,0,1.998267,3.210897,1.\Bq,0,2.10393
 2,3.380706,1.\Bq,0,2.209597,3.550514,1.\Bq,0,2.315262,3.720323,1.\Bq,0
 ,2.420927,3.890131,1.\Bq,0,2.526592,4.05994,1.\Bq,0,2.632257,4.229748,
 1.\\Version=ES64L-G16RevB.01\HF=-691.9315506\S2=2.026532\S2-1=0.\S2A=2
 .000355\RMSD=7.631e-09\Dipole=0.,0.,0.\Quadrupole=4.8032999,5.9592707,
 -10.7625706,1.1728657,0.,0.\PG=C01 [X(C18H10)]\\@


 SUCCESS IS COUNTED SWEETEST
 BY THOSE WHO NE'ER SUCCEED.
 TO COMPREHEND NECTAR
 REQUIRES SOREST NEED.
           EMILY DICKINSON
 Job cpu time:       0 days  1 hours 15 minutes  6.6 seconds.
 Elapsed time:       0 days  0 hours  9 minutes 59.2 seconds.
 File lengths (MBytes):  RWF=    294 Int=      0 D2E=      0 Chk=     29 Scr=      1
 Normal termination of Gaussian 16 at Wed Mar 15 11:25:36 2023.
