 Entering Gaussian System, Link 0=g16
 Initial command:
 /home/wangzhe/g16/l1.exe "/home/wangzhe/g16/Scratch/Gau-575509.inp" -scrdir="/home/wangzhe/g16/Scratch/"
 Default is to use a total of  16 processors:
                               16 via shared-memory
                                1 via Linda
 Entering Link 1 = /home/wangzhe/g16/l1.exe PID=    575513.
  
 Copyright (c) 1988-2017, Gaussian, Inc.  All Rights Reserved.
  
 This is part of the Gaussian(R) 16 program.  It is based on
 the Gaussian(R) 09 system (copyright 2009, Gaussian, Inc.),
 the Gaussian(R) 03 system (copyright 2003, Gaussian, Inc.),
 the Gaussian(R) 98 system (copyright 1998, Gaussian, Inc.),
 the Gaussian(R) 94 system (copyright 1995, Gaussian, Inc.),
 the Gaussian 92(TM) system (copyright 1992, Gaussian, Inc.),
 the Gaussian 90(TM) system (copyright 1990, Gaussian, Inc.),
 the Gaussian 88(TM) system (copyright 1988, Gaussian, Inc.),
 the Gaussian 86(TM) system (copyright 1986, Carnegie Mellon
 University), and the Gaussian 82(TM) system (copyright 1983,
 Carnegie Mellon University). Gaussian is a federally registered
 trademark of Gaussian, Inc.
  
 This software contains proprietary and confidential information,
 including trade secrets, belonging to Gaussian, Inc.
  
 This software is provided under written license and may be
 used, copied, transmitted, or stored only in accord with that
 written license.
  
 The following legend is applicable only to US Government
 contracts under FAR:
  
                    RESTRICTED RIGHTS LEGEND
  
 Use, reproduction and disclosure by the US Government is
 subject to restrictions as set forth in subparagraphs (a)
 and (c) of the Commercial Computer Software - Restricted
 Rights clause in FAR 52.227-19.
  
 Gaussian, Inc.
 340 Quinnipiac St., Bldg. 40, Wallingford CT 06492
  
  
 ---------------------------------------------------------------
 Warning -- This program may not be used in any manner that
 competes with the business of Gaussian, Inc. or will provide
 assistance to any competitor of Gaussian, Inc.  The licensee
 of this program is prohibited from giving any competitor of
 Gaussian, Inc. access to this program.  By using this program,
 the user acknowledges that Gaussian, Inc. is engaged in the
 business of creating and licensing software in the field of
 computational chemistry and represents and warrants to the
 licensee that it is not a competitor of Gaussian, Inc. and that
 it will not use this program in any manner prohibited above.
 ---------------------------------------------------------------
  

 Cite this work as:
 Gaussian 16, Revision B.01,
 M. J. Frisch, G. W. Trucks, H. B. Schlegel, G. E. Scuseria, 
 M. A. Robb, J. R. Cheeseman, G. Scalmani, V. Barone, 
 G. A. Petersson, H. Nakatsuji, X. Li, M. Caricato, A. V. Marenich, 
 J. Bloino, B. G. Janesko, R. Gomperts, B. Mennucci, H. P. Hratchian, 
 J. V. Ortiz, A. F. Izmaylov, J. L. Sonnenberg, D. Williams-Young, 
 F. Ding, F. Lipparini, F. Egidi, J. Goings, B. Peng, A. Petrone, 
 T. Henderson, D. Ranasinghe, V. G. Zakrzewski, J. Gao, N. Rega, 
 G. Zheng, W. Liang, M. Hada, M. Ehara, K. Toyota, R. Fukuda, 
 J. Hasegawa, M. Ishida, T. Nakajima, Y. Honda, O. Kitao, H. Nakai, 
 T. Vreven, K. Throssell, J. A. Montgomery, Jr., J. E. Peralta, 
 F. Ogliaro, M. J. Bearpark, J. J. Heyd, E. N. Brothers, K. N. Kudin, 
 V. N. Staroverov, T. A. Keith, R. Kobayashi, J. Normand, 
 K. Raghavachari, A. P. Rendell, J. C. Burant, S. S. Iyengar, 
 J. Tomasi, M. Cossi, J. M. Millam, M. Klene, C. Adamo, R. Cammi, 
 J. W. Ochterski, R. L. Martin, K. Morokuma, O. Farkas, 
 J. B. Foresman, and D. J. Fox, Gaussian, Inc., Wallingford CT, 2016.
 
 ******************************************
 Gaussian 16:  ES64L-G16RevB.01 20-Dec-2017
                12-Dec-2023 
 ******************************************
 %nprocshared=8
 Will use up to    8 processors via shared memory.
 %mem=10gb
 %chk=terphenyl_zz_NICS.chk
 --------------------------
 #p nmr=giao b3lyp/6-31g(d)
 --------------------------
 1/38=1,172=1/1;
 2/12=2,17=6,18=5,40=1/2;
 3/5=1,6=6,7=1,11=2,25=1,30=1,74=-5/1,2,3,8;
 4//1;
 5/5=2,38=5/2;
 8/6=1,10=90,11=11/1;
 10/13=100,45=16/2;
 6/7=2,8=2,9=2,10=2,28=1/1;
 99/9=1/99;
 Leave Link    1 at Tue Dec 12 09:50:39 2023, MaxMem=  1342177280 cpu:               0.4 elap:               0.0
 (Enter /home/wangzhe/g16/l101.exe)
 --------------------------
 File Created by py.Aroma 4
 --------------------------
 Symbolic Z-matrix:
 Charge =  0 Multiplicity = 1
 C                    -1.339    -0.396     0. 
 C                    -0.327    -1.358     0. 
 C                     1.012    -0.962     0. 
 C                     1.339     0.396     0. 
 C                     0.327     1.358     0. 
 C                    -1.013     0.962     0. 
 H                    -0.581    -2.414     0. 
 H                     1.8      -1.71      0. 
 H                     0.581     2.414     0. 
 H                    -1.8       1.71      0. 
 C                     2.816     0.832     0. 
 C                     3.486     1.03     -1.209 
 C                     3.485     1.03      1.21 
 C                     4.825     1.426    -1.209 
 H                     2.965     0.876    -2.15 
 C                     4.825     1.426     1.21 
 H                     2.964     0.876     2.151 
 C                     5.495     1.624     0.001 
 H                     5.347     1.581    -2.15 
 H                     5.345     1.58      2.151 
 H                     6.537     1.932     0.001 
 C                    -2.816    -0.833     0. 
 C                    -3.189    -2.035     0.605 
 C                    -3.783    -0.026    -0.605 
 C                    -4.528    -2.431     0.605 
 H                    -2.436    -2.662     1.075 
 C                    -5.122    -0.423    -0.605 
 H                    -3.493     0.909    -1.076 
 C                    -5.494    -1.625     0. 
 H                    -4.818    -3.366     1.076 
 H                    -5.874     0.205    -1.076 
 H                    -6.536    -1.933     0. 
 Bq                   -4.01341  -1.70851  -0.86589 
 Bq                   -4.29725  -0.74916   0.86589 
 Bq                   -0.00017   0.        1. 
 Bq                   -0.00017   0.       -1. 
 Bq                    4.43884   0.26903   0.00064 
 Bq                    3.87183   2.18697   0.00036 
 Bq                   -4.15533  -1.22883   0. 
 Bq                   -0.00017   0.        0. 
 Bq                    4.15533   1.228     0.0005 
 
 ITRead=  0  0  0  0  0  0  0  0  0  0  0  0  0  0  0  0  0  0  0  0
 ITRead=  0  0  0  0  0  0  0  0  0  0  0  0  0  0  0  0  0  0  0  0
 ITRead=  0
 MicOpt= -1 -1 -1 -1 -1 -1 -1 -1 -1 -1 -1 -1 -1 -1 -1 -1 -1 -1 -1 -1
 MicOpt= -1 -1 -1 -1 -1 -1 -1 -1 -1 -1 -1 -1 -1 -1 -1 -1 -1 -1 -1 -1
 MicOpt= -1
 NAtoms=     41 NQM=       41 NQMF=       0 NMMI=      0 NMMIF=      0
                NMic=       0 NMicF=      0.
                    Isotopes and Nuclear Properties:
 (Nuclear quadrupole moments (NQMom) in fm**2, nuclear magnetic moments (NMagM)
  in nuclear magnetons)

  Atom         1           2           3           4           5           6           7           8           9          10
 IAtWgt=          12          12          12          12          12          12           1           1           1           1
 AtmWgt=  12.0000000  12.0000000  12.0000000  12.0000000  12.0000000  12.0000000   1.0078250   1.0078250   1.0078250   1.0078250
 NucSpn=           0           0           0           0           0           0           1           1           1           1
 AtZEff=  -0.0000000  -0.0000000  -0.0000000  -0.0000000  -0.0000000  -0.0000000  -0.0000000  -0.0000000  -0.0000000  -0.0000000
 NQMom=    0.0000000   0.0000000   0.0000000   0.0000000   0.0000000   0.0000000   0.0000000   0.0000000   0.0000000   0.0000000
 NMagM=    0.0000000   0.0000000   0.0000000   0.0000000   0.0000000   0.0000000   2.7928460   2.7928460   2.7928460   2.7928460
 AtZNuc=   6.0000000   6.0000000   6.0000000   6.0000000   6.0000000   6.0000000   1.0000000   1.0000000   1.0000000   1.0000000

  Atom        11          12          13          14          15          16          17          18          19          20
 IAtWgt=          12          12          12          12           1          12           1          12           1           1
 AtmWgt=  12.0000000  12.0000000  12.0000000  12.0000000   1.0078250  12.0000000   1.0078250  12.0000000   1.0078250   1.0078250
 NucSpn=           0           0           0           0           1           0           1           0           1           1
 AtZEff=  -0.0000000  -0.0000000  -0.0000000  -0.0000000  -0.0000000  -0.0000000  -0.0000000  -0.0000000  -0.0000000  -0.0000000
 NQMom=    0.0000000   0.0000000   0.0000000   0.0000000   0.0000000   0.0000000   0.0000000   0.0000000   0.0000000   0.0000000
 NMagM=    0.0000000   0.0000000   0.0000000   0.0000000   2.7928460   0.0000000   2.7928460   0.0000000   2.7928460   2.7928460
 AtZNuc=   6.0000000   6.0000000   6.0000000   6.0000000   1.0000000   6.0000000   1.0000000   6.0000000   1.0000000   1.0000000

  Atom        21          22          23          24          25          26          27          28          29          30
 IAtWgt=           1          12          12          12          12           1          12           1          12           1
 AtmWgt=   1.0078250  12.0000000  12.0000000  12.0000000  12.0000000   1.0078250  12.0000000   1.0078250  12.0000000   1.0078250
 NucSpn=           1           0           0           0           0           1           0           1           0           1
 AtZEff=  -0.0000000  -0.0000000  -0.0000000  -0.0000000  -0.0000000  -0.0000000  -0.0000000  -0.0000000  -0.0000000  -0.0000000
 NQMom=    0.0000000   0.0000000   0.0000000   0.0000000   0.0000000   0.0000000   0.0000000   0.0000000   0.0000000   0.0000000
 NMagM=    2.7928460   0.0000000   0.0000000   0.0000000   0.0000000   2.7928460   0.0000000   2.7928460   0.0000000   2.7928460
 AtZNuc=   1.0000000   6.0000000   6.0000000   6.0000000   6.0000000   1.0000000   6.0000000   1.0000000   6.0000000   1.0000000

  Atom        31          32          33          34          35          36          37          38          39          40
 IAtWgt=           1           1           0           0           0           0           0           0           0           0
 AtmWgt=   1.0078250   1.0078250   0.0000000   0.0000000   0.0000000   0.0000000   0.0000000   0.0000000   0.0000000   0.0000000
 NucSpn=           1           1           0           0           0           0           0           0           0           0
 AtZEff=  -0.0000000  -0.0000000  -0.0000000  -0.0000000  -0.0000000  -0.0000000  -0.0000000  -0.0000000  -0.0000000  -0.0000000
 NQMom=    0.0000000   0.0000000   0.0000000   0.0000000   0.0000000   0.0000000   0.0000000   0.0000000   0.0000000   0.0000000
 NMagM=    2.7928460   2.7928460   0.0000000   0.0000000   0.0000000   0.0000000   0.0000000   0.0000000   0.0000000   0.0000000
 AtZNuc=   1.0000000   1.0000000   0.0000000   0.0000000   0.0000000   0.0000000   0.0000000   0.0000000   0.0000000   0.0000000

  Atom        41
 IAtWgt=           0
 AtmWgt=   0.0000000
 NucSpn=           0
 AtZEff=  -0.0000000
 NQMom=    0.0000000
 NMagM=    0.0000000
 AtZNuc=   0.0000000
 Leave Link  101 at Tue Dec 12 09:50:39 2023, MaxMem=  1342177280 cpu:               0.3 elap:               0.0
 (Enter /home/wangzhe/g16/l202.exe)
                          Input orientation:                          
 ---------------------------------------------------------------------
 Center     Atomic      Atomic             Coordinates (Angstroms)
 Number     Number       Type             X           Y           Z
 ---------------------------------------------------------------------
      1          6           0       -1.339000   -0.396000    0.000000
      2          6           0       -0.327000   -1.358000    0.000000
      3          6           0        1.012000   -0.962000    0.000000
      4          6           0        1.339000    0.396000    0.000000
      5          6           0        0.327000    1.358000    0.000000
      6          6           0       -1.013000    0.962000    0.000000
      7          1           0       -0.581000   -2.414000    0.000000
      8          1           0        1.800000   -1.710000    0.000000
      9          1           0        0.581000    2.414000    0.000000
     10          1           0       -1.800000    1.710000    0.000000
     11          6           0        2.816000    0.832000    0.000000
     12          6           0        3.486000    1.030000   -1.209000
     13          6           0        3.485000    1.030000    1.210000
     14          6           0        4.825000    1.426000   -1.209000
     15          1           0        2.965000    0.876000   -2.150000
     16          6           0        4.825000    1.426000    1.210000
     17          1           0        2.964000    0.876000    2.151000
     18          6           0        5.495000    1.624000    0.001000
     19          1           0        5.347000    1.581000   -2.150000
     20          1           0        5.345000    1.580000    2.151000
     21          1           0        6.537000    1.932000    0.001000
     22          6           0       -2.816000   -0.833000    0.000000
     23          6           0       -3.189000   -2.035000    0.605000
     24          6           0       -3.783000   -0.026000   -0.605000
     25          6           0       -4.528000   -2.431000    0.605000
     26          1           0       -2.436000   -2.662000    1.075000
     27          6           0       -5.122000   -0.423000   -0.605000
     28          1           0       -3.493000    0.909000   -1.076000
     29          6           0       -5.494000   -1.625000    0.000000
     30          1           0       -4.818000   -3.366000    1.076000
     31          1           0       -5.874000    0.205000   -1.076000
     32          1           0       -6.536000   -1.933000    0.000000
     33          0           0       -4.013413   -1.708509   -0.865892
     34          0           0       -4.297254   -0.749158    0.865892
     35          0           0       -0.000167    0.000000    1.000000
     36          0           0       -0.000167    0.000000   -1.000000
     37          0           0        4.438837    0.269029    0.000637
     38          0           0        3.871830    2.186971    0.000363
     39          0           0       -4.155333   -1.228833    0.000000
     40          0           0       -0.000167    0.000000    0.000000
     41          0           0        4.155333    1.228000    0.000500
 ---------------------------------------------------------------------
                    Distance matrix (angstroms):
                    1          2          3          4          5
     1  C    0.000000
     2  C    1.396276   0.000000
     3  C    2.418172   1.396330   0.000000
     4  C    2.792660   2.419106   1.396815   0.000000
     5  C    2.419106   2.793631   2.419013   1.396276   0.000000
     6  C    1.396582   2.419297   2.793278   2.419144   1.397289
     7  H    2.155664   1.086118   2.155447   3.403307   3.879748
     8  H    3.402928   2.155930   1.086484   2.155866   3.403286
     9  H    3.403307   3.879748   3.403401   2.155664   1.086118
    10  H    2.155866   3.403286   3.879037   3.402928   2.155930
    11  C    4.332668   3.830737   2.544180   1.540008   2.543973
    12  C    5.174532   4.658669   3.398591   2.544257   3.398315
    13  C    5.173833   4.658110   3.398219   2.543889   3.397742
    14  C    6.540356   5.979585   4.658669   3.830767   4.658144
    15  H    4.976434   4.522225   3.437289   2.738024   3.437131
    16  C    6.540541   5.979788   4.658928   3.831083   4.658404
    17  H    4.976002   4.521973   3.437346   2.738216   3.436989
    18  C    7.126286   6.541254   5.175392   4.333627   5.174841
    19  H    7.296138   6.741995   5.466404   4.700084   5.465586
    20  H    7.294329   6.740195   5.464746   4.698584   5.464102
    21  H    8.212853   7.611741   6.237056   5.420194   6.236472
    22  C    1.540292   2.543766   3.830173   4.332951   3.831309
    23  C    2.544572   3.002565   4.377871   5.174801   4.923488
    24  C    2.544811   3.752890   4.922819   5.174842   4.378765
    25  C    3.831054   4.377871   5.763296   6.540615   6.188180
    26  H    2.737479   2.702577   3.991783   4.975702   4.995017
    27  C    3.831167   4.922629   6.187286   6.540742   5.764511
    28  H    2.738707   4.039879   4.995342   4.976863   3.993968
    29  C    4.332951   5.173894   6.539695   7.125611   6.540820
    30  H    4.699161   5.035764   6.397335   7.295140   7.067176
    31  H    4.699490   5.862589   7.066588   7.295315   6.398405
    32  H    5.419518   6.235568   7.610200   8.212178   7.611271
    33  Bq   3.102408   3.802929   5.153816   5.816103   5.384462
    34  Bq   3.102540   4.108938   5.383609   5.816229   5.154960
    35  Bq   1.717350   1.717843   1.717535   1.717610   1.717906
    36  Bq   1.717350   1.717843   1.717535   1.717610   1.717906
    37  Bq   5.815984   5.035914   3.641242   3.102436   4.253594
    38  Bq   5.815882   5.495179   4.253780   3.102065   3.640469
    39  Bq   2.936893   3.830511   5.174218   5.729553   5.175231
    40  Bq   1.396170   1.396776   1.396398   1.396490   1.396854
    41  Bq   5.729317   5.174815   3.831011   2.936657   3.830540
                    6          7          8          9         10
     6  C    0.000000
     7  H    3.403528   0.000000
     8  H    3.879762   2.482897   0.000000
     9  H    2.156186   4.965866   4.300388   0.000000
    10  H    1.085759   4.300388   4.965521   2.482897   0.000000
    11  C    3.831206   4.698524   2.737521   2.738238   4.698759
    12  C    4.659110   5.464733   3.436841   3.437464   5.464968
    13  C    4.658404   5.464210   3.436703   3.436971   5.464222
    14  C    5.979901   6.740335   4.521814   4.522097   6.740398
    15  H    4.522652   5.293460   3.559090   3.559691   5.293702
    16  C    5.980104   6.740515   4.522081   4.522364   6.740577
    17  H    4.522248   5.293196   3.559367   3.559626   5.293208
    18  C    6.541583   7.295425   4.976804   4.977097   7.295507
    19  H    6.742052   7.464831   5.294751   5.294445   7.464499
    20  H    6.740392   7.462996   5.293196   5.293208   7.462890
    21  H    7.612056   8.339883   5.975227   5.975472   8.339955
    22  C    2.544176   2.737661   4.698573   4.699215   2.738449
    23  C    3.752734   2.703947   5.036047   5.862809   4.039848
    24  C    3.002510   4.039972   5.862744   5.036280   2.704073
    25  C    4.922774   3.993134   6.397613   7.066961   4.995587
    26  H    4.039051   2.158276   4.472765   6.001974   4.546923
    27  C    4.378142   4.995076   7.066575   6.398344   3.993920
    28  H    2.703883   4.547510   6.002732   4.474402   2.160006
    29  C    5.174160   4.975951   7.294495   7.295145   4.976732
    30  H    5.862370   4.473952   6.906376   7.982191   6.002656
    31  H    5.035886   6.002732   7.982185   6.906843   4.474402
    32  H    6.235748   5.974394   8.338982   8.339550   5.975044
    33  Bq   4.108998   3.609563   5.877546   6.233256   4.163553
    34  Bq   3.803177   4.163173   6.232936   5.878154   3.610195
    35  Bq   1.717927   2.676707   2.676696   2.676780   2.676471
    36  Bq   1.717927   2.676707   2.676696   2.676780   2.676471
    37  Bq   5.495702   5.691872   3.298487   4.414047   6.403084
    38  Bq   5.036082   6.402861   4.413486   3.298652   5.691850
    39  Bq   3.830667   3.765697   5.974740   5.975206   3.766209
    40  Bq   1.396880   2.482894   2.482882   2.482972   2.482639
    41  Bq   5.175174   5.974698   3.765559   3.765960   5.974807
                   11         12         13         14         15
    11  C    0.000000
    12  C    1.396347   0.000000
    13  C    1.396734   2.419000   0.000000
    14  C    2.418801   1.396330   2.793560   0.000000
    15  H    2.155606   1.086572   3.403486   2.155825   0.000000
    16  C    2.419301   2.793080   1.397289   2.419000   3.879652
    17  H    2.156534   3.403792   1.086572   3.880132   4.301000
    18  C    2.793619   2.419301   2.419632   1.397213   3.403998
    19  H    3.404330   2.156943   3.880753   1.087194   2.484139
    20  H    3.403255   3.879173   2.155825   3.403486   4.965744
    21  H    3.880186   3.403866   3.404407   2.156636   4.301293
    22  C    5.872959   6.681890   6.681128   8.059134   6.400245
    23  C    6.681747   7.565742   7.369025   8.915902   7.344090
    24  C    6.681990   7.370096   7.565262   8.750473   6.981127
    25  C    8.059003   8.915902   8.749441  10.278407   8.641257
    26  H    6.398997   7.342861   6.979064   8.640053   7.217262
    27  C    8.059336   8.750639   8.915486  10.135405   8.335106
    28  H    6.400561   6.981316   7.343904   8.335113   6.546780
    29  C    8.665619   9.441986   9.441163  10.828298   9.079217
    30  H    8.778322   9.669667   9.395881  11.007813   9.432748
    31  H    8.778782   9.397229   9.669400  10.769268   8.929257
    32  H    9.752186  10.520529  10.519692  11.908689  10.138145
    33  Bq   7.337904   7.991142   8.248331   9.384051   7.551614
    34  Bq   7.338134   8.249220   7.990450   9.604791   8.029762
    35  Bq   3.102099   4.253697   3.640246   5.495034   4.413852
    36  Bq   3.102099   3.641146   4.253397   5.035811   3.298802
    37  Bq   1.717713   1.717614   1.717976   1.717826   2.676910
    38  Bq   1.717767   1.717558   1.717976   1.717606   2.676760
    39  Bq   7.269561   8.059403   8.058605   9.442256   7.729939
    40  Bq   2.936498   3.830919   3.830325   5.174688   3.765912
    41  Bq   1.396649   1.396460   1.396940   1.396620   2.483032
                   16         17         18         19         20
    16  C    0.000000
    17  H    2.156688   0.000000
    18  C    1.396347   3.404110   0.000000
    19  H    3.403837   4.967325   2.156514   0.000000
    20  H    1.086093   2.482897   2.155675   4.301001   0.000000
    21  H    2.156075   4.301624   1.086567   2.483164   2.483398
    22  C    8.059284   6.399678   8.666578   8.779776   8.777886
    23  C    8.750357   6.980218   9.442720   9.671028   9.396143
    24  C    8.916288   7.343783   9.443041   9.398211   9.669289
    25  C   10.135141   8.334052  10.829052  11.009169  10.768211
    26  H    8.333792   6.544862   9.078768   9.432856   8.927278
    27  C   10.278902   8.640968  10.829503  10.770469  11.007526
    28  H    8.641887   7.218550   9.080490   8.930323   9.432604
    29  C   10.828410   9.078522  11.459237  11.507746  11.505770
    30  H   10.768875   8.928030  11.507115  11.756152  11.353639
    31  H   11.008417   9.432604  11.507721  11.355954  11.754578
    32  H   11.908791  10.137420  12.545805  12.576819  12.574821
    33  Bq   9.604791   8.029048  10.112717  10.004356  10.368019
    34  Bq   9.384308   7.551056  10.112772  10.369999  10.002477
    35  Bq   5.035853   3.298252   5.816549   6.404237   5.691398
    36  Bq   5.495436   4.413894   5.816892   5.693352   6.402813
    37  Bq   1.717633   2.677241   1.717972   2.677922   2.676535
    38  Bq   1.717798   2.677320   1.718027   2.677198   2.676543
    39  Bq   9.442384   7.729297  10.063180  10.139625  10.137686
    40  Bq   5.174922   3.765696   5.730117   5.976141   5.974447
    41  Bq   1.396620   2.483511   1.396970   2.483813   2.482713
                   21         22         23         24         25
    21  H    0.000000
    22  C    9.753145   0.000000
    23  C   10.521263   1.396409   0.000000
    24  C   10.521568   1.397270   2.419301   0.000000
    25  C   11.909442   2.418796   1.396330   2.793412   0.000000
    26  H   10.137704   2.155288   1.086756   3.403719   2.156554
    27  C   11.909893   2.419041   2.792693   1.396614   2.418471
    28  H   10.139396   2.156541   3.403720   1.086354   3.879766
    29  C   12.545805   2.792660   2.418088   2.418749   1.396000
    30  H   12.576186   3.403215   2.155700   3.879766   1.086354
    31  H   12.576779   3.403907   3.879766   2.155802   3.403817
    32  H   13.632372   3.879227   3.402769   3.403187   2.155480
    33  Bq  11.194464   1.717581   1.717491   1.718136   1.717648
    34  Bq  11.194539   1.717822   1.717464   1.717829   1.717528
    35  Bq   6.889498   3.102065   3.803407   4.109322   5.154324
    36  Bq   6.889788   3.102065   4.109246   3.803489   5.383963
    37  Bq   2.677267   7.338060   7.991101   8.249390   9.384006
    38  Bq   2.677339   7.338072   8.248997   7.991253   9.604602
    39  Bq  11.149747   1.396602   1.396327   1.396948   1.396464
    40  Bq   6.816684   2.936461   3.830914   3.830995   5.174655
    41  Bq   2.483537   7.269608   8.059269   8.059546   9.442138
                   26         27         28         29         30
    26  H    0.000000
    27  C    3.879448   0.000000
    28  H    4.300708   2.156318   0.000000
    29  C    3.403286   1.396142   3.403371   0.000000
    30  H    2.483856   3.402856   4.966121   2.155419   0.000000
    31  H    4.966521   1.087074   2.482897   2.156635   4.300963
    32  H    4.300822   2.155347   4.300534   1.086567   2.482497
    33  Bq   2.676647   1.717429   2.677000   1.717230   2.676860
    34  Bq   2.677117   1.717588   2.677173   1.717285   2.676412
    35  Bq   3.609037   5.384062   4.163645   5.815740   5.877691
    36  Bq   4.162349   5.154428   3.609978   5.815740   6.233077
    37  Bq   7.550402   9.604962   8.030115  10.111805  10.002943
    38  Bq   8.028455   9.384423   7.551986  10.111869  10.368492
    39  Bq   2.483082   1.396366   2.483302   1.396058   2.482818
    40  Bq   3.764990   5.174759   3.766157   5.729121   5.974885
    41  Bq   7.728669   9.442528   7.730305  10.062268  10.138158
                   31         32         33         34         35
    31  H    0.000000
    32  H    2.483357   0.000000
    33  Bq   2.677209   2.676492   0.000000
    34  Bq   2.677217   2.676422   1.999999   0.000000
    35  Bq   6.233275   6.888657   4.744123   4.363964   0.000000
    36  Bq   5.877901   6.888657   4.363844   4.744233   2.000000
    37  Bq  10.369082  11.193569   8.723649   8.837684   4.558054
    38  Bq  10.003398  11.193618   8.837546   8.723756   4.557903
    39  Bq   2.483439   2.482625   1.000000   0.999999   4.446958
    40  Bq   5.975091   6.815688   4.446900   4.447017   1.000000
    41  Bq  10.138683  11.148835   8.723654   8.723777   4.446928
                   36         37         38         39         40
    36  Bq   0.000000
    37  Bq   4.558334   0.000000
    38  Bq   4.558062   2.000000   0.000000
    39  Bq   4.446958   8.723723   8.723707   0.000000
    40  Bq   1.000000   4.447149   4.446932   4.333063   0.000000
    41  Bq   4.447152   1.000000   1.000000   8.666210   4.333147
                   41
    41  Bq   0.000000
 Symmetry turned off:
 Cannot cope with ghost atoms or with translation vectors.
 Stoichiometry    C18H14
 Framework group  C1[X(C18H14)]
 NumDoF:  NAt=    32 NAtoms=    41
 Deg. of freedom     0
 Full point group                 C1      NOp   1
 Rotational constants (GHZ):           1.8957738           0.1546973           0.1506014
 Leave Link  202 at Tue Dec 12 09:50:39 2023, MaxMem=  1342177280 cpu:               0.0 elap:               0.0
 (Enter /home/wangzhe/g16/l301.exe)
 Standard basis: 6-31G(d) (6D, 7F)
 Warning:  center  33 has no basis functions!
 Warning:  center  34 has no basis functions!
 Warning:  center  35 has no basis functions!
 Warning:  center  36 has no basis functions!
 Warning:  center  37 has no basis functions!
 Warning:  center  38 has no basis functions!
 Warning:  center  39 has no basis functions!
 Warning:  center  40 has no basis functions!
 Warning:  center  41 has no basis functions!
 Ernie: Thresh=  0.10000D-02 Tol=  0.10000D-05 Strict=F.
   298 basis functions,   560 primitive gaussians,   298 cartesian basis functions
    61 alpha electrons       61 beta electrons
       nuclear repulsion energy      1087.8505265943 Hartrees.
 IExCor=  402 DFT=T Ex+Corr=B3LYP ExCW=0 ScaHFX=  0.200000
 ScaDFX=  0.800000  0.720000  1.000000  0.810000 ScalE2=  1.000000  1.000000
 IRadAn=      5 IRanWt=     -1 IRanGd=            0 ICorTp=0 IEmpDi=  4
 NAtoms=   41 NActive=   41 NUniq=   41 SFac= 1.00D+00 NAtFMM=   60 NAOKFM=F Big=F
 Integral buffers will be    131072 words long.
 Raffenetti 2 integral format.
 Two-electron integral symmetry is turned off.
 Leave Link  301 at Tue Dec 12 09:50:39 2023, MaxMem=  1342177280 cpu:               0.1 elap:               0.0
 (Enter /home/wangzhe/g16/l302.exe)
 NPDir=0 NMtPBC=     1 NCelOv=     1 NCel=       1 NClECP=     1 NCelD=      1
         NCelK=      1 NCelE2=     1 NClLst=     1 CellRange=     0.0.
 One-electron integrals computed using PRISM.
 NBasis=   298 RedAO= T EigKep=  4.16D-04  NBF=   298
 NBsUse=   298 1.00D-06 EigRej= -1.00D+00 NBFU=   298
 Precomputing XC quadrature grid using
 IXCGrd= 4 IRadAn=           5 IRanWt=          -1 IRanGd=           0 AccXCQ= 0.00D+00.
 Generated NRdTot=       0 NPtTot=           0 NUsed=           0 NTot=          32
 NSgBfM=   293   293   293   293   293 MxSgAt=    41 MxSgA2=    32.
 Leave Link  302 at Tue Dec 12 09:50:39 2023, MaxMem=  1342177280 cpu:               1.5 elap:               0.2
 (Enter /home/wangzhe/g16/l303.exe)
 DipDrv:  MaxL=1.
 Leave Link  303 at Tue Dec 12 09:50:39 2023, MaxMem=  1342177280 cpu:               0.1 elap:               0.0
 (Enter /home/wangzhe/g16/l308.exe)
 Leave Link  308 at Tue Dec 12 09:50:39 2023, MaxMem=  1342177280 cpu:               0.1 elap:               0.0
 (Enter /home/wangzhe/g16/l401.exe)
 ExpMin= 1.61D-01 ExpMax= 3.05D+03 ExpMxC= 4.57D+02 IAcc=3 IRadAn=         5 AccDes= 0.00D+00
 Harris functional with IExCor=  402 and IRadAn=       5 diagonalized for initial guess.
 HarFok:  IExCor=  402 AccDes= 0.00D+00 IRadAn=         5 IDoV= 1 UseB2=F ITyADJ=14
 ICtDFT=  3500011 ScaDFX=  1.000000  1.000000  1.000000  1.000000
 FoFCou: FMM=F IPFlag=           0 FMFlag=      100000 FMFlg1=           0
         NFxFlg=           0 DoJE=T BraDBF=F KetDBF=T FulRan=T
         wScrn=  0.000000 ICntrl=       500 IOpCl=  0 I1Cent=   200000004 NGrid=           0
         NMat0=    1 NMatS0=      1 NMatT0=    0 NMatD0=    1 NMtDS0=    0 NMtDT0=    0
 Symmetry not used in FoFCou.
 Harris En= -694.387896107976    
 JPrj=0 DoOrth=F DoCkMO=F.
 Leave Link  401 at Tue Dec 12 09:50:40 2023, MaxMem=  1342177280 cpu:               6.8 elap:               0.9
 (Enter /home/wangzhe/g16/l502.exe)
 Two-electron integral symmetry not used.
 Closed shell SCF:
 Using DIIS extrapolation, IDIIS=  1040.
 NGot=  1342177280 LenX=  1341994443 LenY=  1341905198
 Requested convergence on RMS density matrix=1.00D-08 within 128 cycles.
 Requested convergence on MAX density matrix=1.00D-06.
 Requested convergence on             energy=1.00D-06.
 No special actions if energy rises.
 Fock matrices will be formed incrementally for  20 cycles.
 Integral accuracy reduced to 1.0D-05 until final iterations.

 Cycle   1  Pass 0  IDiag  1:
 FoFJK:  IHMeth= 1 ICntrl=       0 DoSepK=F KAlg= 0 I1Cent=           0 FoldK=F
 IRaf= 740000000 NMat=       1 IRICut=       1 DoRegI=T DoRafI=F ISym2E= 0 IDoP0=0 IntGTp=1.
 FoFCou: FMM=F IPFlag=           0 FMFlag=      100000 FMFlg1=           0
         NFxFlg=           0 DoJE=F BraDBF=F KetDBF=F FulRan=T
         wScrn=  0.000000 ICntrl=         0 IOpCl=  0 I1Cent=           0 NGrid=           0
         NMat0=    1 NMatS0=      1 NMatT0=    0 NMatD0=    1 NMtDS0=    0 NMtDT0=    0
 Symmetry not used in FoFCou.
 E= -693.971092476397    
 DIIS: error= 3.67D-02 at cycle   1 NSaved=   1.
 NSaved= 1 IEnMin= 1 EnMin= -693.971092476397     IErMin= 1 ErrMin= 3.67D-02
 ErrMax= 3.67D-02  0.00D+00 EMaxC= 1.00D-01 BMatC= 3.42D-01 BMatP= 3.42D-01
 IDIUse=3 WtCom= 6.33D-01 WtEn= 3.67D-01
 Coeff-Com:  0.100D+01
 Coeff-En:   0.100D+01
 Coeff:      0.100D+01
 Gap=     0.198 Goal=   None    Shift=    0.000
 GapD=    0.198 DampG=1.000 DampE=0.500 DampFc=0.5000 IDamp=-1.
 Damping current iteration by 5.00D-01
 RMSDP=4.54D-03 MaxDP=1.12D-01              OVMax= 1.45D-01

 Cycle   2  Pass 0  IDiag  1:
 RMSU=  2.20D-03    CP:  9.72D-01
 E= -694.161175268091     Delta-E=       -0.190082791694 Rises=F Damp=T
 DIIS: error= 7.16D-03 at cycle   2 NSaved=   2.
 NSaved= 2 IEnMin= 2 EnMin= -694.161175268091     IErMin= 2 ErrMin= 7.16D-03
 ErrMax= 7.16D-03  0.00D+00 EMaxC= 1.00D-01 BMatC= 1.81D-02 BMatP= 3.42D-01
 IDIUse=3 WtCom= 9.28D-01 WtEn= 7.16D-02
 Coeff-Com: -0.379D-01 0.104D+01
 Coeff-En:   0.000D+00 0.100D+01
 Coeff:     -0.352D-01 0.104D+01
 Gap=     0.202 Goal=   None    Shift=    0.000
 RMSDP=1.07D-03 MaxDP=1.96D-02 DE=-1.90D-01 OVMax= 8.62D-02

 Cycle   3  Pass 0  IDiag  1:
 RMSU=  1.04D-03    CP:  9.61D-01  9.67D-01
 E= -694.350832345245     Delta-E=       -0.189657077154 Rises=F Damp=F
 DIIS: error= 3.53D-03 at cycle   3 NSaved=   3.
 NSaved= 3 IEnMin= 3 EnMin= -694.350832345245     IErMin= 3 ErrMin= 3.53D-03
 ErrMax= 3.53D-03  0.00D+00 EMaxC= 1.00D-01 BMatC= 4.88D-03 BMatP= 1.81D-02
 IDIUse=3 WtCom= 9.65D-01 WtEn= 3.53D-02
 Coeff-Com: -0.535D-01 0.327D+00 0.727D+00
 Coeff-En:   0.000D+00 0.000D+00 0.100D+01
 Coeff:     -0.516D-01 0.315D+00 0.736D+00
 Gap=     0.201 Goal=   None    Shift=    0.000
 RMSDP=4.43D-04 MaxDP=1.49D-02 DE=-1.90D-01 OVMax= 3.35D-02

 Cycle   4  Pass 0  IDiag  1:
 RMSU=  3.93D-04    CP:  9.60D-01  1.01D+00  8.31D-01
 E= -694.352245745480     Delta-E=       -0.001413400235 Rises=F Damp=F
 DIIS: error= 3.18D-03 at cycle   4 NSaved=   4.
 NSaved= 4 IEnMin= 4 EnMin= -694.352245745480     IErMin= 4 ErrMin= 3.18D-03
 ErrMax= 3.18D-03  0.00D+00 EMaxC= 1.00D-01 BMatC= 2.97D-03 BMatP= 4.88D-03
 IDIUse=3 WtCom= 9.68D-01 WtEn= 3.18D-02
 Coeff-Com: -0.289D-01 0.115D+00 0.469D+00 0.444D+00
 Coeff-En:   0.000D+00 0.000D+00 0.422D+00 0.578D+00
 Coeff:     -0.280D-01 0.112D+00 0.468D+00 0.449D+00
 Gap=     0.199 Goal=   None    Shift=    0.000
 RMSDP=2.59D-04 MaxDP=8.86D-03 DE=-1.41D-03 OVMax= 2.14D-02

 Cycle   5  Pass 0  IDiag  1:
 RMSU=  1.25D-04    CP:  9.60D-01  1.02D+00  8.51D-01  4.28D-01
 E= -694.355546977672     Delta-E=       -0.003301232192 Rises=F Damp=F
 DIIS: error= 6.98D-04 at cycle   5 NSaved=   5.
 NSaved= 5 IEnMin= 5 EnMin= -694.355546977672     IErMin= 5 ErrMin= 6.98D-04
 ErrMax= 6.98D-04  0.00D+00 EMaxC= 1.00D-01 BMatC= 1.46D-04 BMatP= 2.97D-03
 IDIUse=3 WtCom= 9.93D-01 WtEn= 6.98D-03
 Coeff-Com: -0.769D-02 0.180D-01 0.137D+00 0.230D+00 0.622D+00
 Coeff-En:   0.000D+00 0.000D+00 0.000D+00 0.000D+00 0.100D+01
 Coeff:     -0.764D-02 0.179D-01 0.136D+00 0.229D+00 0.625D+00
 Gap=     0.199 Goal=   None    Shift=    0.000
 RMSDP=5.20D-05 MaxDP=1.31D-03 DE=-3.30D-03 OVMax= 4.07D-03

 Cycle   6  Pass 0  IDiag  1:
 RMSU=  2.64D-05    CP:  9.60D-01  1.02D+00  8.61D-01  4.94D-01  7.23D-01
 E= -694.355703145809     Delta-E=       -0.000156168137 Rises=F Damp=F
 DIIS: error= 1.20D-04 at cycle   6 NSaved=   6.
 NSaved= 6 IEnMin= 6 EnMin= -694.355703145809     IErMin= 6 ErrMin= 1.20D-04
 ErrMax= 1.20D-04  0.00D+00 EMaxC= 1.00D-01 BMatC= 9.71D-06 BMatP= 1.46D-04
 IDIUse=3 WtCom= 9.99D-01 WtEn= 1.20D-03
 Coeff-Com: -0.341D-02 0.659D-02 0.617D-01 0.115D+00 0.353D+00 0.467D+00
 Coeff-En:   0.000D+00 0.000D+00 0.000D+00 0.000D+00 0.000D+00 0.100D+01
 Coeff:     -0.341D-02 0.658D-02 0.617D-01 0.115D+00 0.352D+00 0.468D+00
 Gap=     0.199 Goal=   None    Shift=    0.000
 RMSDP=1.33D-05 MaxDP=3.87D-04 DE=-1.56D-04 OVMax= 7.64D-04

 Cycle   7  Pass 0  IDiag  1:
 RMSU=  5.34D-06    CP:  9.60D-01  1.02D+00  8.63D-01  5.00D-01  7.33D-01
                    CP:  5.53D-01
 E= -694.355713267698     Delta-E=       -0.000010121889 Rises=F Damp=F
 DIIS: error= 2.67D-05 at cycle   7 NSaved=   7.
 NSaved= 7 IEnMin= 7 EnMin= -694.355713267698     IErMin= 7 ErrMin= 2.67D-05
 ErrMax= 2.67D-05  0.00D+00 EMaxC= 1.00D-01 BMatC= 2.22D-07 BMatP= 9.71D-06
 IDIUse=1 WtCom= 1.00D+00 WtEn= 0.00D+00
 Coeff-Com: -0.664D-03 0.892D-03 0.125D-01 0.259D-01 0.859D-01 0.179D+00
 Coeff-Com:  0.697D+00
 Coeff:     -0.664D-03 0.892D-03 0.125D-01 0.259D-01 0.859D-01 0.179D+00
 Coeff:      0.697D+00
 Gap=     0.199 Goal=   None    Shift=    0.000
 RMSDP=2.76D-06 MaxDP=1.03D-04 DE=-1.01D-05 OVMax= 2.11D-04

 Initial convergence to 1.0D-05 achieved.  Increase integral accuracy.
 Cycle   8  Pass 1  IDiag  1:
 E= -694.355715949268     Delta-E=       -0.000002681570 Rises=F Damp=F
 DIIS: error= 1.24D-04 at cycle   1 NSaved=   1.
 NSaved= 1 IEnMin= 1 EnMin= -694.355715949268     IErMin= 1 ErrMin= 1.24D-04
 ErrMax= 1.24D-04  0.00D+00 EMaxC= 1.00D-01 BMatC= 7.51D-07 BMatP= 7.51D-07
 IDIUse=3 WtCom= 9.99D-01 WtEn= 1.24D-03
 Coeff-Com:  0.100D+01
 Coeff-En:   0.100D+01
 Coeff:      0.100D+01
 Gap=     0.199 Goal=   None    Shift=    0.000
 RMSDP=2.76D-06 MaxDP=1.03D-04 DE=-2.68D-06 OVMax= 3.43D-04

 Cycle   9  Pass 1  IDiag  1:
 RMSU=  4.66D-05    CP:  1.00D+00
 E= -694.355715924815     Delta-E=        0.000000024453 Rises=F Damp=F
 DIIS: error= 6.06D-05 at cycle   2 NSaved=   2.
 NSaved= 2 IEnMin= 1 EnMin= -694.355715949268     IErMin= 2 ErrMin= 6.06D-05
 ErrMax= 6.06D-05  0.00D+00 EMaxC= 1.00D-01 BMatC= 6.16D-07 BMatP= 7.51D-07
 IDIUse=1 WtCom= 1.00D+00 WtEn= 0.00D+00
 Coeff-Com:  0.465D+00 0.535D+00
 Coeff:      0.465D+00 0.535D+00
 Gap=     0.199 Goal=   None    Shift=    0.000
 RMSDP=5.41D-06 MaxDP=1.74D-04 DE= 2.45D-08 OVMax= 4.15D-04

 Cycle  10  Pass 1  IDiag  1:
 RMSU=  5.41D-06    CP:  1.00D+00  9.98D-01
 E= -694.355716216556     Delta-E=       -0.000000291742 Rises=F Damp=F
 DIIS: error= 4.77D-05 at cycle   3 NSaved=   3.
 NSaved= 3 IEnMin= 3 EnMin= -694.355716216556     IErMin= 3 ErrMin= 4.77D-05
 ErrMax= 4.77D-05  0.00D+00 EMaxC= 1.00D-01 BMatC= 3.66D-07 BMatP= 6.16D-07
 IDIUse=1 WtCom= 1.00D+00 WtEn= 0.00D+00
 Coeff-Com:  0.248D-02 0.434D+00 0.563D+00
 Coeff:      0.248D-02 0.434D+00 0.563D+00
 Gap=     0.199 Goal=   None    Shift=    0.000
 RMSDP=2.40D-06 MaxDP=8.30D-05 DE=-2.92D-07 OVMax= 1.85D-04

 Cycle  11  Pass 1  IDiag  1:
 RMSU=  5.48D-07    CP:  1.00D+00  1.01D+00  5.76D-01
 E= -694.355716637886     Delta-E=       -0.000000421330 Rises=F Damp=F
 DIIS: error= 3.22D-06 at cycle   4 NSaved=   4.
 NSaved= 4 IEnMin= 4 EnMin= -694.355716637886     IErMin= 4 ErrMin= 3.22D-06
 ErrMax= 3.22D-06  0.00D+00 EMaxC= 1.00D-01 BMatC= 4.40D-09 BMatP= 3.66D-07
 IDIUse=1 WtCom= 1.00D+00 WtEn= 0.00D+00
 Coeff-Com: -0.394D-02 0.245D+00 0.326D+00 0.433D+00
 Coeff:     -0.394D-02 0.245D+00 0.326D+00 0.433D+00
 Gap=     0.199 Goal=   None    Shift=    0.000
 RMSDP=2.85D-07 MaxDP=6.31D-06 DE=-4.21D-07 OVMax= 1.35D-05

 Cycle  12  Pass 1  IDiag  1:
 RMSU=  7.50D-08    CP:  1.00D+00  1.01D+00  5.78D-01  4.99D-01
 E= -694.355716642527     Delta-E=       -0.000000004641 Rises=F Damp=F
 DIIS: error= 1.35D-07 at cycle   5 NSaved=   5.
 NSaved= 5 IEnMin= 5 EnMin= -694.355716642527     IErMin= 5 ErrMin= 1.35D-07
 ErrMax= 1.35D-07  0.00D+00 EMaxC= 1.00D-01 BMatC= 6.17D-12 BMatP= 4.40D-09
 IDIUse=1 WtCom= 1.00D+00 WtEn= 0.00D+00
 Coeff-Com: -0.122D-02 0.722D-01 0.961D-01 0.131D+00 0.702D+00
 Coeff:     -0.122D-02 0.722D-01 0.961D-01 0.131D+00 0.702D+00
 Gap=     0.199 Goal=   None    Shift=    0.000
 RMSDP=1.62D-08 MaxDP=4.03D-07 DE=-4.64D-09 OVMax= 6.82D-07

 Cycle  13  Pass 1  IDiag  1:
 RMSU=  1.54D-08    CP:  1.00D+00  1.01D+00  5.78D-01  4.92D-01  9.59D-01
 E= -694.355716642524     Delta-E=        0.000000000003 Rises=F Damp=F
 DIIS: error= 8.87D-08 at cycle   6 NSaved=   6.
 NSaved= 6 IEnMin= 5 EnMin= -694.355716642527     IErMin= 6 ErrMin= 8.87D-08
 ErrMax= 8.87D-08  0.00D+00 EMaxC= 1.00D-01 BMatC= 2.58D-12 BMatP= 6.17D-12
 IDIUse=1 WtCom= 1.00D+00 WtEn= 0.00D+00
 Coeff-Com: -0.217D-03 0.113D-01 0.151D-01 0.217D-01 0.394D+00 0.559D+00
 Coeff:     -0.217D-03 0.113D-01 0.151D-01 0.217D-01 0.394D+00 0.559D+00
 Gap=     0.199 Goal=   None    Shift=    0.000
 RMSDP=6.30D-09 MaxDP=2.15D-07 DE= 3.41D-12 OVMax= 3.53D-07

 SCF Done:  E(RB3LYP) =  -694.355716643     A.U. after   13 cycles
            NFock= 13  Conv=0.63D-08     -V/T= 2.0100
 KE= 6.874611183158D+02 PE=-3.782905189143D+03 EE= 1.313237827590D+03
 Leave Link  502 at Tue Dec 12 09:50:57 2023, MaxMem=  1342177280 cpu:             137.4 elap:              17.2
 (Enter /home/wangzhe/g16/l801.exe)
 DoSCS=F DFT=T ScalE2(SS,OS)=  1.000000  1.000000
 Range of M.O.s used for correlation:     1   298
 NBasis=   298 NAE=    61 NBE=    61 NFC=     0 NFV=     0
 NROrb=    298 NOA=    61 NOB=    61 NVA=   237 NVB=   237
 Leave Link  801 at Tue Dec 12 09:50:57 2023, MaxMem=  1342177280 cpu:               0.1 elap:               0.0
 (Enter /home/wangzhe/g16/l1002.exe)
 Minotr:  Closed shell wavefunction.
          Direct CPHF calculation.
          Differentiating once with respect to magnetic field using GIAOs.
          Electric field/nuclear overlap derivatives assumed to be zero.
          Requested convergence is 1.0D-08 RMS, and 1.0D-07 maximum.
          Secondary convergence is 1.0D-12 RMS, and 1.0D-12 maximum.
          NewPWx=T KeepS1=F KeepF1=F KeepIn=T MapXYZ=F SortEE=F KeepMc=T.
        11365 words used for storage of precomputed grid.
 Two-electron integral symmetry not used.
          MDV=    1342177280 using IRadAn=       1.
          Solving linear equations simultaneously, MaxMat=     384.
 FoFCou: FMM=F IPFlag=           0 FMFlag=      100000 FMFlg1=           0
         NFxFlg=           0 DoJE=F BraDBF=F KetDBF=T FulRan=T
         wScrn=  0.000000 ICntrl=      6100 IOpCl=  0 I1Cent=           7 NGrid=          41
         NMat0=    1 NMatS0=      1 NMatT0=    0 NMatD0=    1 NMtDS0=    0 NMtDT0=    0
 Symmetry not used in FoFCou.
 FoFJK:  IHMeth= 1 ICntrl=    6127 DoSepK=F KAlg= 0 I1Cent=           0 FoldK=F
 IRaf=         1 NMat=       1 IRICut=       1 DoRegI=T DoRafI=F ISym2E= 0 IDoP0=0 IntGTp=1.
          There are     3 degrees of freedom in the 1st order CPHF.  IDoFFX=0 NUNeed=     3.
      3 vectors produced by pass  0 Test12= 4.82D-13 3.33D-08 XBig12= 4.83D+01 1.76D+00.
 AX will form     3 AO Fock derivatives at one time.
      3 vectors produced by pass  1 Test12= 4.82D-13 3.33D-08 XBig12= 1.36D-01 1.27D-01.
      3 vectors produced by pass  2 Test12= 4.82D-13 3.33D-08 XBig12= 2.95D-04 2.70D-03.
      3 vectors produced by pass  3 Test12= 4.82D-13 3.33D-08 XBig12= 5.16D-07 1.23D-04.
      3 vectors produced by pass  4 Test12= 4.82D-13 3.33D-08 XBig12= 1.58D-09 7.68D-06.
      3 vectors produced by pass  5 Test12= 4.82D-13 3.33D-08 XBig12= 2.95D-12 3.18D-07.
 InvSVY:  IOpt=1 It=  1 EMax= 8.88D-16
 Solved reduced A of dimension    18 with     3 vectors.
 Calculating GIAO nuclear magnetic shielding tensors.
 SCF GIAO Magnetic shielding tensor (ppm):
      1  C    Isotropic =    54.6331   Anisotropy =   171.6254
   XX=   -20.6682   YX=   -12.0099   ZX=    -0.3136
   XY=   -11.9933   YY=    16.5715   ZY=     1.1287
   XZ=     7.4279   YZ=   -25.1569   ZZ=   167.9960
   Eigenvalues:   -24.2010    19.0502   169.0500
      2  C    Isotropic =    71.2930   Anisotropy =   154.9140
   XX=    57.8245   YX=   -12.2232   ZX=     0.3442
   XY=   -11.3392   YY=   -17.8337   ZY=    -0.5387
   XZ=    14.9836   YZ=    -9.5679   ZZ=   173.8883
   Eigenvalues:   -19.7025    59.0126   174.5690
      3  C    Isotropic =    66.7818   Anisotropy =   153.7962
   XX=    18.4640   YX=    39.1948   ZX=     0.5599
   XY=    44.1661   YY=    12.5846   ZY=    -0.6773
   XZ=     1.0384   YZ=    -2.3582   ZZ=   169.2968
   Eigenvalues:   -26.2737    57.3065   169.3126
      4  C    Isotropic =    51.1542   Anisotropy =   170.3365
   XX=   -24.1447   YX=   -12.0114   ZX=     0.0490
   XY=   -12.0639   YY=    12.9360   ZY=    -0.0420
   XZ=    -1.4066   YZ=     4.7472   ZZ=   164.6714
   Eigenvalues:   -27.7097    16.4606   164.7119
      5  C    Isotropic =    66.7456   Anisotropy =   153.9436
   XX=    54.7128   YX=   -11.8830   ZX=    -0.0904
   XY=   -16.8483   YY=   -23.8349   ZY=    -0.8696
   XZ=     0.4394   YZ=    -2.5240   ZZ=   169.3590
   Eigenvalues:   -26.3936    57.2557   169.3747
      6  C    Isotropic =    71.1684   Anisotropy =   155.0026
   XX=    24.5140   YX=    39.7865   ZX=     0.0170
   XY=    38.9163   YY=    15.1681   ZY=    -0.6496
   XZ=    -7.3774   YZ=   -16.1718   ZZ=   173.8232
   Eigenvalues:   -19.8635    58.8653   174.5035
      7  H    Isotropic =    24.6553   Anisotropy =     8.3304
   XX=    30.0057   YX=    -0.2090   ZX=    -0.1711
   XY=    -0.4915   YY=    24.0941   ZY=    -0.9394
   XZ=    -2.6332   YZ=    -0.0616   ZZ=    19.8660
   Eigenvalues:    19.6098    24.1471    30.2089
      8  H    Isotropic =    25.0013   Anisotropy =     8.2924
   XX=    26.5750   YX=     2.4642   ZX=     0.0214
   XY=     4.8178   YY=    27.1738   ZY=    -0.2731
   XZ=     0.2279   YZ=    -0.3154   ZZ=    21.2550
   Eigenvalues:    21.2110    23.2633    30.5296
      9  H    Isotropic =    24.9999   Anisotropy =     8.2964
   XX=    30.0772   YX=    -0.5863   ZX=     0.1304
   XY=    -2.9372   YY=    23.6591   ZY=    -0.2427
   XZ=    -0.0196   YZ=    -0.3886   ZZ=    21.2635
   Eigenvalues:    21.2187    23.2502    30.5309
     10  H    Isotropic =    24.6568   Anisotropy =     8.3341
   XX=    27.9338   YX=     2.7069   ZX=     0.6517
   XY=     2.9909   YY=    26.1602   ZY=    -0.6970
   XZ=     2.2455   YZ=     1.3779   ZZ=    19.8764
   Eigenvalues:    19.6196    24.1379    30.2129
     11  C    Isotropic =    50.7512   Anisotropy =   172.4690
   XX=   -13.3905   YX=   -52.8884   ZX=     0.1527
   XY=   -52.8266   YY=   150.1325   ZY=    -0.1564
   XZ=    -0.0020   YZ=     0.4939   ZZ=    15.5116
   Eigenvalues:   -28.9888    15.5118   165.7305
     12  C    Isotropic =    68.2451   Anisotropy =   155.4429
   XX=    51.7190   YX=   -35.5218   ZX=   -30.7351
   XY=   -35.5154   YY=   161.3741   ZY=    -8.9908
   XZ=   -34.6958   YZ=   -10.3978   ZZ=    -8.3579
   Eigenvalues:   -25.7446    58.6061   171.8737
     13  C    Isotropic =    68.0636   Anisotropy =   155.5970
   XX=    51.4554   YX=   -35.5703   ZX=    30.9224
   XY=   -35.4929   YY=   161.3037   ZY=     9.0031
   XZ=    34.9170   YZ=    10.1450   ZZ=    -8.5683
   Eigenvalues:   -26.0953    58.4913   171.7949
     14  C    Isotropic =    68.6475   Anisotropy =   165.5032
   XX=    45.3515   YX=   -39.5513   ZX=    34.0886
   XY=   -39.5360   YY=   167.2814   ZY=    10.1151
   XZ=    35.0265   YZ=    10.3773   ZZ=    -6.6904
   Eigenvalues:   -27.8245    54.7841   178.9830
     15  H    Isotropic =    25.0510   Anisotropy =     8.4186
   XX=    27.8356   YX=     1.8394   ZX=    -2.2700
   XY=     1.7700   YY=    22.0857   ZY=    -0.7650
   XZ=    -4.4682   YZ=    -1.4240   ZZ=    25.2318
   Eigenvalues:    21.5583    22.9313    30.6634
     16  C    Isotropic =    68.6610   Anisotropy =   165.6624
   XX=    45.3969   YX=   -39.5211   ZX=   -34.0187
   XY=   -39.5131   YY=   167.4231   ZY=   -10.1982
   XZ=   -34.9628   YZ=   -10.4100   ZZ=    -6.8371
   Eigenvalues:   -27.8750    54.7553   179.1026
     17  H    Isotropic =    25.0455   Anisotropy =     8.4275
   XX=    27.7727   YX=     1.8456   ZX=     2.3410
   XY=     1.9200   YY=    22.1473   ZY=     0.5782
   XZ=     4.5354   YZ=     1.2379   ZZ=    25.2165
   Eigenvalues:    21.5657    22.9069    30.6638
     18  C    Isotropic =    69.3517   Anisotropy =   166.8435
   XX=   -10.6880   YX=   -56.5185   ZX=     0.0114
   XY=   -56.7401   YY=   163.8143   ZY=    -0.0701
   XZ=    -0.0113   YZ=    -0.0472   ZZ=    54.9288
   Eigenvalues:   -27.4543    54.9288   180.5807
     19  H    Isotropic =    24.9362   Anisotropy =     4.5183
   XX=    27.2379   YX=     1.6576   ZX=     0.9172
   XY=     1.6304   YY=    22.0991   ZY=     0.2237
   XZ=     0.5534   YZ=     0.1211   ZZ=    25.4718
   Eigenvalues:    21.6177    25.2426    27.9484
     20  H    Isotropic =    24.9504   Anisotropy =     4.5394
   XX=    27.2493   YX=     1.6626   ZX=    -0.8900
   XY=     1.6880   YY=    22.1380   ZY=    -0.3161
   XZ=    -0.5320   YZ=    -0.2033   ZZ=    25.4639
   Eigenvalues:    21.6373    25.2373    27.9766
     21  H    Isotropic =    24.9475   Anisotropy =     3.8904
   XX=    25.2655   YX=     1.0432   ZX=     0.0120
   XY=     1.0229   YY=    22.0362   ZY=    -0.0387
   XZ=     0.0133   YZ=    -0.0308   ZZ=    27.5409
   Eigenvalues:    21.7338    25.5677    27.5412
     22  C    Isotropic =    53.9214   Anisotropy =   172.3901
   XX=   -18.4166   YX=   -25.4347   ZX=   -16.0040
   XY=   -25.4617   YY=    60.0825   ZY=    54.2099
   XZ=   -23.6661   YZ=    80.5771   ZZ=   120.0984
   Eigenvalues:   -25.9446    18.8608   168.8482
     23  C    Isotropic =    71.0251   Anisotropy =   156.1835
   XX=    29.3758   YX=    23.3288   ZX=   -36.6036
   XY=    27.5144   YY=    60.7055   ZY=    68.0387
   XZ=   -29.9539   YZ=    83.5907   ZZ=   122.9940
   Eigenvalues:   -21.5511    59.4790   175.1474
     24  C    Isotropic =    70.8813   Anisotropy =   156.3450
   XX=    61.7760   YX=   -22.5934   ZX=    -6.2649
   XY=   -26.7493   YY=    27.9891   ZY=    77.1924
   XZ=   -20.3635   YZ=    86.5081   ZZ=   122.8789
   Eigenvalues:   -21.8624    59.3950   175.1113
     25  C    Isotropic =    67.3006   Anisotropy =   165.0985
   XX=    51.1492   YX=   -26.6596   ZX=    -5.7419
   XY=   -27.5341   YY=    21.4819   ZY=    82.7911
   XZ=    -5.6883   YZ=    84.2096   ZZ=   129.2708
   Eigenvalues:   -29.6087    54.1443   177.3663
     26  H    Isotropic =    24.6173   Anisotropy =     8.8004
   XX=    27.9346   YX=     2.9334   ZX=    -0.9637
   XY=     2.5506   YY=    24.8386   ZY=    -1.7791
   XZ=    -2.5808   YZ=    -3.7988   ZZ=    21.0787
   Eigenvalues:    19.5839    23.7838    30.4843
     27  C    Isotropic =    67.1808   Anisotropy =   165.1215
   XX=    17.6475   YX=    24.2176   ZX=   -40.2015
   XY=    25.0811   YY=    54.7852   ZY=    72.6172
   XZ=   -41.0587   YZ=    73.8998   ZZ=   129.1098
   Eigenvalues:   -29.7887    54.0694   177.2618
     28  H    Isotropic =    24.6153   Anisotropy =     8.8103
   XX=    29.5259   YX=     0.0990   ZX=     1.7783
   XY=     0.4819   YY=    23.2364   ZY=    -0.9509
   XZ=     4.2312   YZ=    -1.7789   ZZ=    21.0837
   Eigenvalues:    19.5938    23.7632    30.4888
     29  C    Isotropic =    69.5185   Anisotropy =   164.6664
   XX=   -18.2260   YX=   -30.5921   ZX=   -15.4018
   XY=   -30.5769   YY=    76.0669   ZY=    52.1196
   XZ=   -13.9857   YZ=    47.3957   ZZ=   150.7148
   Eigenvalues:   -27.2774    56.5369   179.2961
     30  H    Isotropic =    24.8810   Anisotropy =     4.9964
   XX=    28.0464   YX=     0.1321   ZX=     0.9122
   XY=     0.2021   YY=    24.4815   ZY=    -1.5354
   XZ=     1.0872   YZ=    -1.3982   ZZ=    22.1151
   Eigenvalues:    21.2733    25.1578    28.2119
     31  H    Isotropic =    24.8683   Anisotropy =     5.0013
   XX=    27.1448   YX=     1.5904   ZX=     0.0749
   XY=     1.5235   YY=    25.3640   ZY=    -1.7855
   XZ=    -0.1500   YZ=    -1.7576   ZZ=    22.0961
   Eigenvalues:    21.2562    25.1462    28.2025
     32  H    Isotropic =    25.0203   Anisotropy =     4.2592
   XX=    25.6445   YX=    -0.1928   ZX=     0.7255
   XY=    -0.1944   YY=    26.2431   ZY=    -2.4548
   XZ=     0.8097   YZ=    -2.7296   ZZ=    23.1734
   Eigenvalues:    21.6139    25.5873    27.8598
     33  Bq   Isotropic =    10.5037   Anisotropy =    23.7696
   XX=     3.7028   YX=    -1.3798   ZX=    -2.6566
   XY=    -1.5633   YY=     8.1080   ZY=    10.6704
   XZ=    -2.0365   YZ=    10.5894   ZZ=    19.7001
   Eigenvalues:     1.7939     3.3671    26.3500
     34  Bq   Isotropic =    10.5015   Anisotropy =    23.7685
   XX=     3.6616   YX=    -1.5097   ZX=    -3.5762
   XY=    -1.3260   YY=     8.1572   ZY=    10.4028
   XZ=    -4.0542   YZ=     9.9980   ZZ=    19.6856
   Eigenvalues:     1.7958     3.3614    26.3472
     35  Bq   Isotropic =    10.2674   Anisotropy =    23.7782
   XX=     3.5401   YX=     1.0352   ZX=     0.4416
   XY=     1.5019   YY=     1.1818   ZY=    -0.7096
   XZ=     1.2786   YZ=    -0.1908   ZZ=    26.0803
   Eigenvalues:     0.6065     4.0762    26.1196
     36  Bq   Isotropic =    10.2675   Anisotropy =    23.7792
   XX=     4.0015   YX=     0.7899   ZX=     0.0172
   XY=     0.3217   YY=     0.7199   ZY=    -0.8391
   XZ=    -0.9667   YZ=    -0.8531   ZZ=    26.0811
   Eigenvalues:     0.6057     4.0765    26.1203
     37  Bq   Isotropic =    10.9161   Anisotropy =    26.5969
   XX=     5.4050   YX=    -7.1048   ZX=     0.0223
   XY=    -6.5582   YY=    26.6393   ZY=    -0.0806
   XZ=    -0.0131   YZ=    -0.0742   ZZ=     0.7042
   Eigenvalues:     0.7039     3.3971    28.6474
     38  Bq   Isotropic =    10.9028   Anisotropy =    26.5579
   XX=     5.4394   YX=    -6.6030   ZX=     0.0289
   XY=    -7.1618   YY=    26.5634   ZY=    -0.0823
   XZ=     0.0512   YZ=    -0.0432   ZZ=     0.7057
   Eigenvalues:     0.7054     3.3951    28.6081
     39  Bq   Isotropic =     8.8358   Anisotropy =     2.8694
   XX=     8.6251   YX=    -0.2063   ZX=    -0.4910
   XY=    -0.2046   YY=     9.2431   ZY=     1.6601
   XZ=    -0.4978   YZ=     1.6870   ZZ=     8.6392
   Eigenvalues:     7.1957     8.5630    10.7487
     40  Bq   Isotropic =     8.7754   Anisotropy =     3.3415
   XX=     9.0046   YX=     0.7604   ZX=     0.3477
   XY=     0.7610   YY=     6.6531   ZY=    -1.1813
   XZ=     0.3535   YZ=    -1.1913   ZZ=    10.6686
   Eigenvalues:     6.0940     9.2292    11.0031
     41  Bq   Isotropic =     9.5542   Anisotropy =     6.7518
   XX=     9.0242   YX=    -1.4786   ZX=     0.0296
   XY=    -1.4852   YY=    13.6180   ZY=    -0.0780
   XZ=     0.0293   YZ=    -0.0793   ZZ=     6.0205
   Eigenvalues:     6.0196     8.5877    14.0554
 End of Minotr F.D. properties file   721 does not exist.
 End of Minotr F.D. properties file   722 does not exist.
 End of Minotr F.D. properties file   788 does not exist.
 Leave Link 1002 at Tue Dec 12 09:51:09 2023, MaxMem=  1342177280 cpu:              91.6 elap:              11.7
 (Enter /home/wangzhe/g16/l601.exe)
 Copying SCF densities to generalized density rwf, IOpCl= 0 IROHF=0.

 **********************************************************************

            Population analysis using the SCF Density.

 **********************************************************************

 Alpha  occ. eigenvalues --  -10.19890 -10.19864 -10.19695 -10.19673 -10.18968
 Alpha  occ. eigenvalues --  -10.18957 -10.18911 -10.18907 -10.18886 -10.18869
 Alpha  occ. eigenvalues --  -10.18835 -10.18828 -10.18791 -10.18776 -10.18776
 Alpha  occ. eigenvalues --  -10.18769 -10.18736 -10.18728  -0.86687  -0.85394
 Alpha  occ. eigenvalues --   -0.83988  -0.77886  -0.74815  -0.74458  -0.74175
 Alpha  occ. eigenvalues --   -0.73961  -0.70702  -0.62230  -0.61883  -0.60158
 Alpha  occ. eigenvalues --   -0.58972  -0.58940  -0.56770  -0.52957  -0.51364
 Alpha  occ. eigenvalues --   -0.48165  -0.46746  -0.46081  -0.44620  -0.44425
 Alpha  occ. eigenvalues --   -0.43930  -0.43259  -0.42671  -0.41852  -0.41377
 Alpha  occ. eigenvalues --   -0.41004  -0.37545  -0.37482  -0.36184  -0.35428
 Alpha  occ. eigenvalues --   -0.35167  -0.34157  -0.34005  -0.33462  -0.31973
 Alpha  occ. eigenvalues --   -0.27115  -0.25229  -0.24888  -0.24607  -0.24492
 Alpha  occ. eigenvalues --   -0.22182
 Alpha virt. eigenvalues --   -0.02294  -0.01052  -0.00010   0.00248   0.00979
 Alpha virt. eigenvalues --    0.03379   0.09206   0.09702   0.11098   0.12368
 Alpha virt. eigenvalues --    0.14098   0.14725   0.15083   0.15914   0.15927
 Alpha virt. eigenvalues --    0.16218   0.17694   0.17795   0.18506   0.18611
 Alpha virt. eigenvalues --    0.19267   0.19971   0.23545   0.23871   0.25059
 Alpha virt. eigenvalues --    0.27887   0.29676   0.30216   0.30758   0.30888
 Alpha virt. eigenvalues --    0.30983   0.33654   0.34017   0.34767   0.36302
 Alpha virt. eigenvalues --    0.37476   0.37940   0.46233   0.46361   0.49516
 Alpha virt. eigenvalues --    0.50900   0.53514   0.53908   0.53959   0.54630
 Alpha virt. eigenvalues --    0.54758   0.55219   0.55654   0.56022   0.56774
 Alpha virt. eigenvalues --    0.56984   0.57557   0.57731   0.58507   0.58848
 Alpha virt. eigenvalues --    0.59143   0.59532   0.59864   0.59875   0.60815
 Alpha virt. eigenvalues --    0.61385   0.61478   0.61610   0.61822   0.62067
 Alpha virt. eigenvalues --    0.62949   0.63340   0.64338   0.64388   0.67267
 Alpha virt. eigenvalues --    0.68003   0.68064   0.72857   0.73534   0.74496
 Alpha virt. eigenvalues --    0.75505   0.77824   0.78026   0.80336   0.80889
 Alpha virt. eigenvalues --    0.81817   0.83328   0.83549   0.83744   0.84065
 Alpha virt. eigenvalues --    0.84161   0.84943   0.85698   0.86646   0.86929
 Alpha virt. eigenvalues --    0.88301   0.89189   0.91051   0.92013   0.93911
 Alpha virt. eigenvalues --    0.94030   0.94993   0.95685   0.98459   0.98936
 Alpha virt. eigenvalues --    1.00664   1.01457   1.02222   1.03105   1.05385
 Alpha virt. eigenvalues --    1.07874   1.11199   1.11481   1.13476   1.14836
 Alpha virt. eigenvalues --    1.15547   1.16935   1.17235   1.17965   1.18477
 Alpha virt. eigenvalues --    1.19883   1.21726   1.22521   1.25780   1.27502
 Alpha virt. eigenvalues --    1.30086   1.31769   1.37627   1.39904   1.41725
 Alpha virt. eigenvalues --    1.43607   1.44081   1.44288   1.45694   1.46736
 Alpha virt. eigenvalues --    1.47787   1.47960   1.48801   1.49660   1.49917
 Alpha virt. eigenvalues --    1.50206   1.51170   1.51366   1.51616   1.52034
 Alpha virt. eigenvalues --    1.62185   1.68900   1.72353   1.73278   1.75520
 Alpha virt. eigenvalues --    1.79150   1.79290   1.80923   1.82535   1.82849
 Alpha virt. eigenvalues --    1.83967   1.84879   1.88540   1.89503   1.91064
 Alpha virt. eigenvalues --    1.92757   1.93176   1.97246   1.97505   1.98498
 Alpha virt. eigenvalues --    2.03063   2.04669   2.05309   2.05981   2.06238
 Alpha virt. eigenvalues --    2.09180   2.11094   2.11967   2.13531   2.14511
 Alpha virt. eigenvalues --    2.14888   2.14950   2.15983   2.16152   2.17857
 Alpha virt. eigenvalues --    2.21151   2.21974   2.24937   2.26720   2.29893
 Alpha virt. eigenvalues --    2.30689   2.30765   2.31003   2.32773   2.34198
 Alpha virt. eigenvalues --    2.34765   2.35593   2.36000   2.42003   2.48680
 Alpha virt. eigenvalues --    2.53766   2.57846   2.58758   2.59085   2.61797
 Alpha virt. eigenvalues --    2.62522   2.63746   2.66488   2.67368   2.69085
 Alpha virt. eigenvalues --    2.69404   2.71482   2.73453   2.73747   2.74456
 Alpha virt. eigenvalues --    2.74933   2.75772   2.77987   2.79190   2.82493
 Alpha virt. eigenvalues --    2.86496   2.93926   3.00557   3.00581   3.05399
 Alpha virt. eigenvalues --    3.18720   3.35690   3.41440   3.47345   4.08519
 Alpha virt. eigenvalues --    4.09374   4.09958   4.11649   4.11812   4.11880
 Alpha virt. eigenvalues --    4.13250   4.16657   4.18464   4.32030   4.32942
 Alpha virt. eigenvalues --    4.33040   4.33619   4.39293   4.45901   4.64612
 Alpha virt. eigenvalues --    4.71021   4.77964
          Condensed to atoms (all electrons):
               1          2          3          4          5          6
     1  C    4.752222   0.524459  -0.020829  -0.025520  -0.020798   0.524688
     2  C    0.524459   5.044482   0.476545  -0.029067  -0.047224  -0.062747
     3  C   -0.020829   0.476545   4.964464   0.546203  -0.034798  -0.047236
     4  C   -0.025520  -0.029067   0.546203   4.791314   0.546552  -0.029014
     5  C   -0.020798  -0.047224  -0.034798   0.546552   4.964534   0.476171
     6  C    0.524688  -0.062747  -0.047236  -0.029014   0.476171   5.044814
     7  H   -0.039401   0.347096  -0.040014   0.003616   0.000512   0.005968
     8  H    0.003408  -0.040455   0.353737  -0.042745   0.005611   0.000563
     9  H    0.003403   0.000564   0.005608  -0.042735   0.353792  -0.040466
    10  H   -0.039343   0.005973   0.000513   0.003611  -0.040034   0.347129
    11  C    0.000597   0.005525  -0.047546   0.321929  -0.047638   0.005519
    12  C    0.000020  -0.000005  -0.000534  -0.047711  -0.000510   0.000001
    13  C    0.000020   0.000001  -0.000511  -0.047766  -0.000536  -0.000005
    14  C   -0.000000   0.000003   0.000005   0.005506   0.000005   0.000003
    15  H   -0.000007  -0.000065   0.001245  -0.004944   0.001259  -0.000068
    16  C   -0.000000   0.000003   0.000004   0.005500   0.000005   0.000003
    17  H   -0.000007  -0.000068   0.001257  -0.004922   0.001243  -0.000065
    18  C    0.000000  -0.000000   0.000015   0.000586   0.000015  -0.000000
    19  H    0.000000  -0.000000  -0.000001  -0.000168  -0.000001  -0.000000
    20  H    0.000000  -0.000000  -0.000001  -0.000168  -0.000001  -0.000000
    21  H   -0.000000   0.000000   0.000000   0.000004   0.000000   0.000000
    22  C    0.337140  -0.042994   0.005538   0.000648   0.005526  -0.043029
    23  C   -0.042858  -0.015553   0.000397  -0.000006  -0.000167   0.006625
    24  C   -0.042867   0.006634  -0.000168  -0.000006   0.000393  -0.015533
    25  C    0.005509   0.000394  -0.000005  -0.000000   0.000002  -0.000169
    26  H   -0.011735   0.005745   0.000059  -0.000006  -0.000005  -0.000085
    27  C    0.005502  -0.000170   0.000002  -0.000000  -0.000005   0.000397
    28  H   -0.011676  -0.000084  -0.000005  -0.000006   0.000059   0.005718
    29  C    0.000666  -0.000004   0.000000   0.000000   0.000000  -0.000004
    30  H   -0.000166   0.000002  -0.000000  -0.000000  -0.000000   0.000001
    31  H   -0.000166   0.000001  -0.000000  -0.000000  -0.000000   0.000002
    32  H    0.000004  -0.000000   0.000000   0.000000   0.000000  -0.000000
    33  Bq   0.000000   0.000000   0.000000   0.000000   0.000000   0.000000
    34  Bq   0.000000   0.000000   0.000000   0.000000   0.000000   0.000000
    35  Bq   0.000000   0.000000   0.000000   0.000000   0.000000   0.000000
    36  Bq   0.000000   0.000000   0.000000   0.000000   0.000000   0.000000
    37  Bq   0.000000   0.000000   0.000000   0.000000   0.000000   0.000000
    38  Bq   0.000000   0.000000   0.000000   0.000000   0.000000   0.000000
    39  Bq   0.000000   0.000000   0.000000   0.000000   0.000000   0.000000
    40  Bq   0.000000   0.000000   0.000000   0.000000   0.000000   0.000000
    41  Bq   0.000000   0.000000   0.000000   0.000000   0.000000   0.000000
               7          8          9         10         11         12
     1  C   -0.039401   0.003408   0.003403  -0.039343   0.000597   0.000020
     2  C    0.347096  -0.040455   0.000564   0.005973   0.005525  -0.000005
     3  C   -0.040014   0.353737   0.005608   0.000513  -0.047546  -0.000534
     4  C    0.003616  -0.042745  -0.042735   0.003611   0.321929  -0.047711
     5  C    0.000512   0.005611   0.353792  -0.040034  -0.047638  -0.000510
     6  C    0.005968   0.000563  -0.040466   0.347129   0.005519   0.000001
     7  H    0.594846  -0.004868   0.000019  -0.000168  -0.000160  -0.000001
     8  H   -0.004868   0.590996  -0.000173   0.000019  -0.004636   0.001288
     9  H    0.000019  -0.000173   0.590899  -0.004852  -0.004638   0.001270
    10  H   -0.000168   0.000019  -0.004852   0.594780  -0.000159  -0.000002
    11  C   -0.000160  -0.004636  -0.004638  -0.000159   4.793120   0.546533
    12  C   -0.000001   0.001288   0.001270  -0.000002   0.546533   4.937474
    13  C   -0.000002   0.001274   0.001291  -0.000001   0.546488  -0.043771
    14  C   -0.000000  -0.000064  -0.000062  -0.000000  -0.020717   0.514193
    15  H    0.000001   0.000173   0.000176   0.000001  -0.044212   0.356275
    16  C   -0.000000  -0.000062  -0.000064  -0.000000  -0.020716  -0.045270
    17  H    0.000001   0.000176   0.000173   0.000001  -0.044141   0.005771
    18  C    0.000000  -0.000007  -0.000007   0.000000  -0.033984  -0.037614
    19  H    0.000000   0.000001   0.000001   0.000000   0.003836  -0.039398
    20  H    0.000000   0.000001   0.000001   0.000000   0.003849   0.000821
    21  H   -0.000000  -0.000000  -0.000000  -0.000000   0.000582   0.004801
    22  C   -0.011335  -0.000159  -0.000158  -0.011331   0.000001   0.000000
    23  C    0.005631   0.000002   0.000001  -0.000075   0.000000  -0.000000
    24  C   -0.000073   0.000001   0.000002   0.005653   0.000000  -0.000000
    25  C    0.000050  -0.000000  -0.000000  -0.000006  -0.000000  -0.000000
    26  H    0.004025   0.000008   0.000000   0.000003  -0.000000  -0.000000
    27  C   -0.000006  -0.000000  -0.000000   0.000051  -0.000000   0.000000
    28  H    0.000003   0.000000   0.000008   0.003996  -0.000000   0.000000
    29  C   -0.000006  -0.000000  -0.000000  -0.000006   0.000000   0.000000
    30  H    0.000008   0.000000   0.000000   0.000000  -0.000000   0.000000
    31  H    0.000000   0.000000   0.000000   0.000008  -0.000000  -0.000000
    32  H   -0.000000  -0.000000  -0.000000  -0.000000  -0.000000   0.000000
    33  Bq   0.000000   0.000000   0.000000   0.000000   0.000000   0.000000
    34  Bq   0.000000   0.000000   0.000000   0.000000   0.000000   0.000000
    35  Bq   0.000000   0.000000   0.000000   0.000000   0.000000   0.000000
    36  Bq   0.000000   0.000000   0.000000   0.000000   0.000000   0.000000
    37  Bq   0.000000   0.000000   0.000000   0.000000   0.000000   0.000000
    38  Bq   0.000000   0.000000   0.000000   0.000000   0.000000   0.000000
    39  Bq   0.000000   0.000000   0.000000   0.000000   0.000000   0.000000
    40  Bq   0.000000   0.000000   0.000000   0.000000   0.000000   0.000000
    41  Bq   0.000000   0.000000   0.000000   0.000000   0.000000   0.000000
              13         14         15         16         17         18
     1  C    0.000020  -0.000000  -0.000007  -0.000000  -0.000007   0.000000
     2  C    0.000001   0.000003  -0.000065   0.000003  -0.000068  -0.000000
     3  C   -0.000511   0.000005   0.001245   0.000004   0.001257   0.000015
     4  C   -0.047766   0.005506  -0.004944   0.005500  -0.004922   0.000586
     5  C   -0.000536   0.000005   0.001259   0.000005   0.001243   0.000015
     6  C   -0.000005   0.000003  -0.000068   0.000003  -0.000065  -0.000000
     7  H   -0.000002  -0.000000   0.000001  -0.000000   0.000001   0.000000
     8  H    0.001274  -0.000064   0.000173  -0.000062   0.000176  -0.000007
     9  H    0.001291  -0.000062   0.000176  -0.000064   0.000173  -0.000007
    10  H   -0.000001  -0.000000   0.000001  -0.000000   0.000001   0.000000
    11  C    0.546488  -0.020717  -0.044212  -0.020716  -0.044141  -0.033984
    12  C   -0.043771   0.514193   0.356275  -0.045270   0.005771  -0.037614
    13  C    4.938307  -0.045301   0.005783   0.513743   0.356272  -0.037549
    14  C   -0.045301   4.882006  -0.044885  -0.026041   0.000306   0.550776
    15  H    0.005783  -0.044885   0.595555   0.000305  -0.000169   0.004719
    16  C    0.513743  -0.026041   0.000305   4.881564  -0.044821   0.551386
    17  H    0.356272   0.000306  -0.000169  -0.044821   0.595344   0.004710
    18  C   -0.037549   0.550776   0.004719   0.551386   0.004710   4.849626
    19  H    0.000818   0.356102  -0.005471   0.004521   0.000018  -0.043190
    20  H   -0.039509   0.004534   0.000018   0.356202  -0.005467  -0.043263
    21  H    0.004798  -0.043477  -0.000177  -0.043513  -0.000176   0.359035
    22  C    0.000000   0.000000  -0.000000   0.000000  -0.000000  -0.000000
    23  C   -0.000000   0.000000   0.000000   0.000000   0.000000  -0.000000
    24  C   -0.000000   0.000000   0.000000   0.000000   0.000000  -0.000000
    25  C    0.000000   0.000000   0.000000  -0.000000  -0.000000  -0.000000
    26  H    0.000000   0.000000   0.000000  -0.000000   0.000000   0.000000
    27  C   -0.000000  -0.000000  -0.000000   0.000000   0.000000  -0.000000
    28  H   -0.000000  -0.000000   0.000000   0.000000   0.000000   0.000000
    29  C    0.000000  -0.000000  -0.000000  -0.000000  -0.000000   0.000000
    30  H   -0.000000  -0.000000  -0.000000   0.000000   0.000000   0.000000
    31  H    0.000000   0.000000   0.000000  -0.000000  -0.000000   0.000000
    32  H    0.000000  -0.000000   0.000000  -0.000000   0.000000   0.000000
    33  Bq   0.000000   0.000000   0.000000   0.000000   0.000000   0.000000
    34  Bq   0.000000   0.000000   0.000000   0.000000   0.000000   0.000000
    35  Bq   0.000000   0.000000   0.000000   0.000000   0.000000   0.000000
    36  Bq   0.000000   0.000000   0.000000   0.000000   0.000000   0.000000
    37  Bq   0.000000   0.000000   0.000000   0.000000   0.000000   0.000000
    38  Bq   0.000000   0.000000   0.000000   0.000000   0.000000   0.000000
    39  Bq   0.000000   0.000000   0.000000   0.000000   0.000000   0.000000
    40  Bq   0.000000   0.000000   0.000000   0.000000   0.000000   0.000000
    41  Bq   0.000000   0.000000   0.000000   0.000000   0.000000   0.000000
              19         20         21         22         23         24
     1  C    0.000000   0.000000  -0.000000   0.337140  -0.042858  -0.042867
     2  C   -0.000000  -0.000000   0.000000  -0.042994  -0.015553   0.006634
     3  C   -0.000001  -0.000001   0.000000   0.005538   0.000397  -0.000168
     4  C   -0.000168  -0.000168   0.000004   0.000648  -0.000006  -0.000006
     5  C   -0.000001  -0.000001   0.000000   0.005526  -0.000167   0.000393
     6  C   -0.000000  -0.000000   0.000000  -0.043029   0.006625  -0.015533
     7  H    0.000000   0.000000  -0.000000  -0.011335   0.005631  -0.000073
     8  H    0.000001   0.000001  -0.000000  -0.000159   0.000002   0.000001
     9  H    0.000001   0.000001  -0.000000  -0.000158   0.000001   0.000002
    10  H    0.000000   0.000000  -0.000000  -0.011331  -0.000075   0.005653
    11  C    0.003836   0.003849   0.000582   0.000001   0.000000   0.000000
    12  C   -0.039398   0.000821   0.004801   0.000000  -0.000000  -0.000000
    13  C    0.000818  -0.039509   0.004798   0.000000  -0.000000  -0.000000
    14  C    0.356102   0.004534  -0.043477   0.000000   0.000000   0.000000
    15  H   -0.005471   0.000018  -0.000177  -0.000000   0.000000   0.000000
    16  C    0.004521   0.356202  -0.043513   0.000000   0.000000   0.000000
    17  H    0.000018  -0.005467  -0.000176  -0.000000   0.000000   0.000000
    18  C   -0.043190  -0.043263   0.359035  -0.000000  -0.000000  -0.000000
    19  H    0.598686  -0.000188  -0.005655   0.000000  -0.000000  -0.000000
    20  H   -0.000188   0.598792  -0.005674   0.000000  -0.000000  -0.000000
    21  H   -0.005655  -0.005674   0.601114  -0.000000   0.000000   0.000000
    22  C    0.000000   0.000000  -0.000000   4.754807   0.524298   0.523877
    23  C   -0.000000  -0.000000   0.000000   0.524298   5.011277  -0.070757
    24  C   -0.000000  -0.000000   0.000000   0.523877  -0.070757   5.011529
    25  C   -0.000000   0.000000   0.000000  -0.013338   0.513282  -0.042183
    26  H   -0.000000   0.000000  -0.000000  -0.040162   0.349582   0.006229
    27  C    0.000000  -0.000000   0.000000  -0.013330  -0.042204   0.513306
    28  H    0.000000  -0.000000  -0.000000  -0.040103   0.006218   0.349651
    29  C    0.000000   0.000000   0.000000  -0.034607  -0.038439  -0.038429
    30  H    0.000000  -0.000000   0.000000   0.003462  -0.039174   0.000847
    31  H   -0.000000   0.000000   0.000000   0.003456   0.000849  -0.039168
    32  H    0.000000   0.000000   0.000000   0.000587   0.004870   0.004865
    33  Bq   0.000000   0.000000   0.000000   0.000000   0.000000   0.000000
    34  Bq   0.000000   0.000000   0.000000   0.000000   0.000000   0.000000
    35  Bq   0.000000   0.000000   0.000000   0.000000   0.000000   0.000000
    36  Bq   0.000000   0.000000   0.000000   0.000000   0.000000   0.000000
    37  Bq   0.000000   0.000000   0.000000   0.000000   0.000000   0.000000
    38  Bq   0.000000   0.000000   0.000000   0.000000   0.000000   0.000000
    39  Bq   0.000000   0.000000   0.000000   0.000000   0.000000   0.000000
    40  Bq   0.000000   0.000000   0.000000   0.000000   0.000000   0.000000
    41  Bq   0.000000   0.000000   0.000000   0.000000   0.000000   0.000000
              25         26         27         28         29         30
     1  C    0.005509  -0.011735   0.005502  -0.011676   0.000666  -0.000166
     2  C    0.000394   0.005745  -0.000170  -0.000084  -0.000004   0.000002
     3  C   -0.000005   0.000059   0.000002  -0.000005   0.000000  -0.000000
     4  C   -0.000000  -0.000006  -0.000000  -0.000006   0.000000  -0.000000
     5  C    0.000002  -0.000005  -0.000005   0.000059   0.000000  -0.000000
     6  C   -0.000169  -0.000085   0.000397   0.005718  -0.000004   0.000001
     7  H    0.000050   0.004025  -0.000006   0.000003  -0.000006   0.000008
     8  H   -0.000000   0.000008  -0.000000   0.000000  -0.000000   0.000000
     9  H   -0.000000   0.000000  -0.000000   0.000008  -0.000000   0.000000
    10  H   -0.000006   0.000003   0.000051   0.003996  -0.000006   0.000000
    11  C   -0.000000  -0.000000  -0.000000  -0.000000   0.000000  -0.000000
    12  C   -0.000000  -0.000000   0.000000   0.000000   0.000000   0.000000
    13  C    0.000000   0.000000  -0.000000  -0.000000   0.000000  -0.000000
    14  C    0.000000   0.000000  -0.000000  -0.000000  -0.000000  -0.000000
    15  H    0.000000   0.000000  -0.000000   0.000000  -0.000000  -0.000000
    16  C   -0.000000  -0.000000   0.000000   0.000000  -0.000000   0.000000
    17  H   -0.000000   0.000000   0.000000   0.000000  -0.000000   0.000000
    18  C   -0.000000   0.000000  -0.000000   0.000000   0.000000   0.000000
    19  H   -0.000000  -0.000000   0.000000   0.000000   0.000000   0.000000
    20  H    0.000000   0.000000  -0.000000  -0.000000   0.000000  -0.000000
    21  H    0.000000  -0.000000   0.000000  -0.000000   0.000000   0.000000
    22  C   -0.013338  -0.040162  -0.013330  -0.040103  -0.034607   0.003462
    23  C    0.513282   0.349582  -0.042204   0.006218  -0.038439  -0.039174
    24  C   -0.042183   0.006229   0.513306   0.349651  -0.038429   0.000847
    25  C    4.874532  -0.044305  -0.025444   0.000292   0.550455   0.356598
    26  H   -0.044305   0.598677   0.000291  -0.000162   0.004595  -0.005237
    27  C   -0.025444   0.000291   4.874853  -0.044295   0.550284   0.004605
    28  H    0.000292  -0.000162  -0.044295   0.598444   0.004593   0.000017
    29  C    0.550455   0.004595   0.550284   0.004593   4.852466  -0.042888
    30  H    0.356598  -0.005237   0.004605   0.000017  -0.042888   0.597613
    31  H    0.004592   0.000017   0.356483  -0.005234  -0.042808  -0.000184
    32  H   -0.043609  -0.000176  -0.043613  -0.000176   0.359302  -0.005650
    33  Bq   0.000000   0.000000   0.000000   0.000000   0.000000   0.000000
    34  Bq   0.000000   0.000000   0.000000   0.000000   0.000000   0.000000
    35  Bq   0.000000   0.000000   0.000000   0.000000   0.000000   0.000000
    36  Bq   0.000000   0.000000   0.000000   0.000000   0.000000   0.000000
    37  Bq   0.000000   0.000000   0.000000   0.000000   0.000000   0.000000
    38  Bq   0.000000   0.000000   0.000000   0.000000   0.000000   0.000000
    39  Bq   0.000000   0.000000   0.000000   0.000000   0.000000   0.000000
    40  Bq   0.000000   0.000000   0.000000   0.000000   0.000000   0.000000
    41  Bq   0.000000   0.000000   0.000000   0.000000   0.000000   0.000000
              31         32         33         34         35         36
     1  C   -0.000166   0.000004   0.000000   0.000000   0.000000   0.000000
     2  C    0.000001  -0.000000   0.000000   0.000000   0.000000   0.000000
     3  C   -0.000000   0.000000   0.000000   0.000000   0.000000   0.000000
     4  C   -0.000000   0.000000   0.000000   0.000000   0.000000   0.000000
     5  C   -0.000000   0.000000   0.000000   0.000000   0.000000   0.000000
     6  C    0.000002  -0.000000   0.000000   0.000000   0.000000   0.000000
     7  H    0.000000  -0.000000   0.000000   0.000000   0.000000   0.000000
     8  H    0.000000  -0.000000   0.000000   0.000000   0.000000   0.000000
     9  H    0.000000  -0.000000   0.000000   0.000000   0.000000   0.000000
    10  H    0.000008  -0.000000   0.000000   0.000000   0.000000   0.000000
    11  C   -0.000000  -0.000000   0.000000   0.000000   0.000000   0.000000
    12  C   -0.000000   0.000000   0.000000   0.000000   0.000000   0.000000
    13  C    0.000000   0.000000   0.000000   0.000000   0.000000   0.000000
    14  C    0.000000  -0.000000   0.000000   0.000000   0.000000   0.000000
    15  H    0.000000   0.000000   0.000000   0.000000   0.000000   0.000000
    16  C   -0.000000  -0.000000   0.000000   0.000000   0.000000   0.000000
    17  H   -0.000000   0.000000   0.000000   0.000000   0.000000   0.000000
    18  C    0.000000   0.000000   0.000000   0.000000   0.000000   0.000000
    19  H   -0.000000   0.000000   0.000000   0.000000   0.000000   0.000000
    20  H    0.000000   0.000000   0.000000   0.000000   0.000000   0.000000
    21  H    0.000000   0.000000   0.000000   0.000000   0.000000   0.000000
    22  C    0.003456   0.000587   0.000000   0.000000   0.000000   0.000000
    23  C    0.000849   0.004870   0.000000   0.000000   0.000000   0.000000
    24  C   -0.039168   0.004865   0.000000   0.000000   0.000000   0.000000
    25  C    0.004592  -0.043609   0.000000   0.000000   0.000000   0.000000
    26  H    0.000017  -0.000176   0.000000   0.000000   0.000000   0.000000
    27  C    0.356483  -0.043613   0.000000   0.000000   0.000000   0.000000
    28  H   -0.005234  -0.000176   0.000000   0.000000   0.000000   0.000000
    29  C   -0.042808   0.359302   0.000000   0.000000   0.000000   0.000000
    30  H   -0.000184  -0.005650   0.000000   0.000000   0.000000   0.000000
    31  H    0.597714  -0.005640   0.000000   0.000000   0.000000   0.000000
    32  H   -0.005640   0.600971   0.000000   0.000000   0.000000   0.000000
    33  Bq   0.000000   0.000000   0.000000   0.000000   0.000000   0.000000
    34  Bq   0.000000   0.000000   0.000000   0.000000   0.000000   0.000000
    35  Bq   0.000000   0.000000   0.000000   0.000000   0.000000   0.000000
    36  Bq   0.000000   0.000000   0.000000   0.000000   0.000000   0.000000
    37  Bq   0.000000   0.000000   0.000000   0.000000   0.000000   0.000000
    38  Bq   0.000000   0.000000   0.000000   0.000000   0.000000   0.000000
    39  Bq   0.000000   0.000000   0.000000   0.000000   0.000000   0.000000
    40  Bq   0.000000   0.000000   0.000000   0.000000   0.000000   0.000000
    41  Bq   0.000000   0.000000   0.000000   0.000000   0.000000   0.000000
              37         38         39         40         41
     1  C    0.000000   0.000000   0.000000   0.000000   0.000000
     2  C    0.000000   0.000000   0.000000   0.000000   0.000000
     3  C    0.000000   0.000000   0.000000   0.000000   0.000000
     4  C    0.000000   0.000000   0.000000   0.000000   0.000000
     5  C    0.000000   0.000000   0.000000   0.000000   0.000000
     6  C    0.000000   0.000000   0.000000   0.000000   0.000000
     7  H    0.000000   0.000000   0.000000   0.000000   0.000000
     8  H    0.000000   0.000000   0.000000   0.000000   0.000000
     9  H    0.000000   0.000000   0.000000   0.000000   0.000000
    10  H    0.000000   0.000000   0.000000   0.000000   0.000000
    11  C    0.000000   0.000000   0.000000   0.000000   0.000000
    12  C    0.000000   0.000000   0.000000   0.000000   0.000000
    13  C    0.000000   0.000000   0.000000   0.000000   0.000000
    14  C    0.000000   0.000000   0.000000   0.000000   0.000000
    15  H    0.000000   0.000000   0.000000   0.000000   0.000000
    16  C    0.000000   0.000000   0.000000   0.000000   0.000000
    17  H    0.000000   0.000000   0.000000   0.000000   0.000000
    18  C    0.000000   0.000000   0.000000   0.000000   0.000000
    19  H    0.000000   0.000000   0.000000   0.000000   0.000000
    20  H    0.000000   0.000000   0.000000   0.000000   0.000000
    21  H    0.000000   0.000000   0.000000   0.000000   0.000000
    22  C    0.000000   0.000000   0.000000   0.000000   0.000000
    23  C    0.000000   0.000000   0.000000   0.000000   0.000000
    24  C    0.000000   0.000000   0.000000   0.000000   0.000000
    25  C    0.000000   0.000000   0.000000   0.000000   0.000000
    26  H    0.000000   0.000000   0.000000   0.000000   0.000000
    27  C    0.000000   0.000000   0.000000   0.000000   0.000000
    28  H    0.000000   0.000000   0.000000   0.000000   0.000000
    29  C    0.000000   0.000000   0.000000   0.000000   0.000000
    30  H    0.000000   0.000000   0.000000   0.000000   0.000000
    31  H    0.000000   0.000000   0.000000   0.000000   0.000000
    32  H    0.000000   0.000000   0.000000   0.000000   0.000000
    33  Bq   0.000000   0.000000   0.000000   0.000000   0.000000
    34  Bq   0.000000   0.000000   0.000000   0.000000   0.000000
    35  Bq   0.000000   0.000000   0.000000   0.000000   0.000000
    36  Bq   0.000000   0.000000   0.000000   0.000000   0.000000
    37  Bq   0.000000   0.000000   0.000000   0.000000   0.000000
    38  Bq   0.000000   0.000000   0.000000   0.000000   0.000000
    39  Bq   0.000000   0.000000   0.000000   0.000000   0.000000
    40  Bq   0.000000   0.000000   0.000000   0.000000   0.000000
    41  Bq   0.000000   0.000000   0.000000   0.000000   0.000000
 Mulliken charges:
               1
     1  C    0.097734
     2  C   -0.178992
     3  C   -0.163946
     4  C    0.049318
     5  C   -0.163964
     6  C   -0.179183
     7  H    0.134257
     8  H    0.135909
     9  H    0.135945
    10  H    0.134240
    11  C    0.040569
    12  C   -0.153628
    13  C   -0.153844
    14  C   -0.132891
    15  H    0.134488
    16  C   -0.132749
    17  H    0.134563
    18  C   -0.125253
    19  H    0.130089
    20  H    0.130054
    21  H    0.128337
    22  C    0.091207
    23  C   -0.173798
    24  C   -0.173803
    25  C   -0.136648
    26  H    0.132641
    27  C   -0.136709
    28  H    0.132740
    29  C   -0.125171
    30  H    0.130146
    31  H    0.130077
    32  H    0.128266
    33  Bq   0.000000
    34  Bq   0.000000
    35  Bq   0.000000
    36  Bq   0.000000
    37  Bq   0.000000
    38  Bq   0.000000
    39  Bq   0.000000
    40  Bq   0.000000
    41  Bq   0.000000
 Sum of Mulliken charges =  -0.00000
 Mulliken charges with hydrogens summed into heavy atoms:
               1
     1  C    0.097734
     2  C   -0.044735
     3  C   -0.028037
     4  C    0.049318
     5  C   -0.028019
     6  C   -0.044943
    11  C    0.040569
    12  C   -0.019140
    13  C   -0.019281
    14  C   -0.002802
    16  C   -0.002695
    18  C    0.003084
    22  C    0.091207
    23  C   -0.041157
    24  C   -0.041063
    25  C   -0.006502
    27  C   -0.006632
    29  C    0.003095
    33  Bq   0.000000
    34  Bq   0.000000
    35  Bq   0.000000
    36  Bq   0.000000
    37  Bq   0.000000
    38  Bq   0.000000
    39  Bq   0.000000
    40  Bq   0.000000
    41  Bq   0.000000
 Electronic spatial extent (au):  <R**2>=           6930.0703
 Charge=             -0.0000 electrons
 Dipole moment (field-independent basis, Debye):
    X=              0.0197    Y=              0.0069    Z=              0.0005  Tot=              0.0209
 Quadrupole moment (field-independent basis, Debye-Ang):
   XX=            -91.7701   YY=            -98.6286   ZZ=           -102.5975
   XY=              2.2285   XZ=              0.8602   YZ=             -2.9088
 Traceless Quadrupole moment (field-independent basis, Debye-Ang):
   XX=              5.8953   YY=             -0.9632   ZZ=             -4.9321
   XY=              2.2285   XZ=              0.8602   YZ=             -2.9088
 Octapole moment (field-independent basis, Debye-Ang**2):
  XXX=             -6.3409  YYY=            -17.8800  ZZZ=             -0.0269  XYY=            -16.7930
  XXY=             11.1503  XXZ=             -7.2918  XZZ=             22.6494  YZZ=              6.7258
  YYZ=              7.2612  XYZ=             11.2425
 Hexadecapole moment (field-independent basis, Debye-Ang**3):
 XXXX=          -7283.1208 YYYY=          -1188.8016 ZZZZ=           -412.3522 XXXY=           -867.2475
 XXXZ=             34.3531 YYYX=          -1106.6379 YYYZ=             28.3339 ZZZX=            -15.9178
 ZZZY=             53.2490 XXYY=          -1483.2891 XXZZ=          -1370.4875 YYZZ=           -275.1295
 XXYZ=            -29.9927 YYXZ=            -34.4392 ZZXY=           -354.8249
 N-N= 1.087850526594D+03 E-N=-3.782905201623D+03  KE= 6.874611183158D+02
 Calculating spin-rotation constants.
 Leave Link  601 at Tue Dec 12 09:51:13 2023, MaxMem=  1342177280 cpu:               6.1 elap:               4.2
 (Enter /home/wangzhe/g16/l9999.exe)
 1\1\GINC-RHEL-HPC\SP\RB3LYP\6-31G(d)\C18H14\WANGZHE\12-Dec-2023\0\\#p 
 nmr=giao b3lyp/6-31g(d)\\File Created by py.Aroma 4\\0,1\C,0,-1.339,-0
 .396,0.\C,0,-0.327,-1.358,0.\C,0,1.012,-0.962,0.\C,0,1.339,0.396,0.\C,
 0,0.327,1.358,0.\C,0,-1.013,0.962,0.\H,0,-0.581,-2.414,0.\H,0,1.8,-1.7
 1,0.\H,0,0.581,2.414,0.\H,0,-1.8,1.71,0.\C,0,2.816,0.832,0.\C,0,3.486,
 1.03,-1.209\C,0,3.485,1.03,1.21\C,0,4.825,1.426,-1.209\H,0,2.965,0.876
 ,-2.15\C,0,4.825,1.426,1.21\H,0,2.964,0.876,2.151\C,0,5.495,1.624,0.00
 1\H,0,5.347,1.581,-2.15\H,0,5.345,1.58,2.151\H,0,6.537,1.932,0.001\C,0
 ,-2.816,-0.833,0.\C,0,-3.189,-2.035,0.605\C,0,-3.783,-0.026,-0.605\C,0
 ,-4.528,-2.431,0.605\H,0,-2.436,-2.662,1.075\C,0,-5.122,-0.423,-0.605\
 H,0,-3.493,0.909,-1.076\C,0,-5.494,-1.625,0.\H,0,-4.818,-3.366,1.076\H
 ,0,-5.874,0.205,-1.076\H,0,-6.536,-1.933,0.\Bq,0,-4.013413,-1.708509,-
 0.865892\Bq,0,-4.297254,-0.749158,0.865892\Bq,0,-0.000167,0.,1.\Bq,0,-
 0.000167,0.,-1.\Bq,0,4.438837,0.269029,0.000637\Bq,0,3.87183,2.186971,
 0.000363\Bq,0,-4.155333,-1.228833,0.\Bq,0,-0.000167,0.,0.\Bq,0,4.15533
 3,1.228,0.0005\\Version=ES64L-G16RevB.01\HF=-694.3557166\RMSD=6.304e-0
 9\Dipole=0.0077457,0.0027096,0.0002019\Quadrupole=4.3830239,-0.7161491
 ,-3.6668748,1.6568583,0.6395272,-2.1626013\PG=C01 [X(C18H14)]\\@


 YOU KNOW YOU'VE SPOKEN TOO LONG WHEN THE AUDIENCE STOPS LOOKING AT
 THEIR WATCHES AND STARTS SHAKING THEM.
 Job cpu time:       0 days  0 hours  4 minutes  4.6 seconds.
 Elapsed time:       0 days  0 hours  0 minutes 34.5 seconds.
 File lengths (MBytes):  RWF=     57 Int=      0 D2E=      0 Chk=      8 Scr=      1
 Normal termination of Gaussian 16 at Tue Dec 12 09:51:13 2023.
