 Entering Gaussian System, Link 0=g16
 Initial command:
 /Applications/g16/l1.exe "/Applications/g16/Scratch/Gau-12419.inp" -scrdir="/Applications/g16/Scratch/"
 Entering Link 1 = /Applications/g16/l1.exe PID=     12422.
  
 Copyright (c) 1988-2017, Gaussian, Inc.  All Rights Reserved.
  
 This is part of the Gaussian(R) 16 program.  It is based on
 the Gaussian(R) 09 system (copyright 2009, Gaussian, Inc.),
 the Gaussian(R) 03 system (copyright 2003, Gaussian, Inc.),
 the Gaussian(R) 98 system (copyright 1998, Gaussian, Inc.),
 the Gaussian(R) 94 system (copyright 1995, Gaussian, Inc.),
 the Gaussian 92(TM) system (copyright 1992, Gaussian, Inc.),
 the Gaussian 90(TM) system (copyright 1990, Gaussian, Inc.),
 the Gaussian 88(TM) system (copyright 1988, Gaussian, Inc.),
 the Gaussian 86(TM) system (copyright 1986, Carnegie Mellon
 University), and the Gaussian 82(TM) system (copyright 1983,
 Carnegie Mellon University). Gaussian is a federally registered
 trademark of Gaussian, Inc.
  
 This software contains proprietary and confidential information,
 including trade secrets, belonging to Gaussian, Inc.
  
 This software is provided under written license and may be
 used, copied, transmitted, or stored only in accord with that
 written license.
  
 The following legend is applicable only to US Government
 contracts under FAR:
  
                    RESTRICTED RIGHTS LEGEND
  
 Use, reproduction and disclosure by the US Government is
 subject to restrictions as set forth in subparagraphs (a)
 and (c) of the Commercial Computer Software - Restricted
 Rights clause in FAR 52.227-19.
  
 Gaussian, Inc.
 340 Quinnipiac St., Bldg. 40, Wallingford CT 06492
  
  
 ---------------------------------------------------------------
 Warning -- This program may not be used in any manner that
 competes with the business of Gaussian, Inc. or will provide
 assistance to any competitor of Gaussian, Inc.  The licensee
 of this program is prohibited from giving any competitor of
 Gaussian, Inc. access to this program.  By using this program,
 the user acknowledges that Gaussian, Inc. is engaged in the
 business of creating and licensing software in the field of
 computational chemistry and represents and warrants to the
 licensee that it is not a competitor of Gaussian, Inc. and that
 it will not use this program in any manner prohibited above.
 ---------------------------------------------------------------
  

 Cite this work as:
 Gaussian 16, Revision B.01,
 M. J. Frisch, G. W. Trucks, H. B. Schlegel, G. E. Scuseria, 
 M. A. Robb, J. R. Cheeseman, G. Scalmani, V. Barone, 
 G. A. Petersson, H. Nakatsuji, X. Li, M. Caricato, A. V. Marenich, 
 J. Bloino, B. G. Janesko, R. Gomperts, B. Mennucci, H. P. Hratchian, 
 J. V. Ortiz, A. F. Izmaylov, J. L. Sonnenberg, D. Williams-Young, 
 F. Ding, F. Lipparini, F. Egidi, J. Goings, B. Peng, A. Petrone, 
 T. Henderson, D. Ranasinghe, V. G. Zakrzewski, J. Gao, N. Rega, 
 G. Zheng, W. Liang, M. Hada, M. Ehara, K. Toyota, R. Fukuda, 
 J. Hasegawa, M. Ishida, T. Nakajima, Y. Honda, O. Kitao, H. Nakai, 
 T. Vreven, K. Throssell, J. A. Montgomery, Jr., J. E. Peralta, 
 F. Ogliaro, M. J. Bearpark, J. J. Heyd, E. N. Brothers, K. N. Kudin, 
 V. N. Staroverov, T. A. Keith, R. Kobayashi, J. Normand, 
 K. Raghavachari, A. P. Rendell, J. C. Burant, S. S. Iyengar, 
 J. Tomasi, M. Cossi, J. M. Millam, M. Klene, C. Adamo, R. Cammi, 
 J. W. Ochterski, R. L. Martin, K. Morokuma, O. Farkas, 
 J. B. Foresman, and D. J. Fox, Gaussian, Inc., Wallingford CT, 2016.
 
 ******************************************
 Gaussian 16:  EM64M-G16RevB.01 20-Dec-2017
                11-May-2021 
 ******************************************
 %nprocshared=8
 Will use up to    8 processors via shared memory.
 %mem=10GB
 ---------------------------------------------
 #p nmr=giao rb3lyp/6-31g(d) geom=connectivity
 ---------------------------------------------
 1/38=1,57=2,172=1/1;
 2/12=2,17=6,18=5,40=1/2;
 3/5=1,6=6,7=1,11=2,25=1,30=1,74=-5,116=1/1,2,3,8;
 4//1;
 5/5=2,38=5/2;
 8/6=1,10=90,11=11/1;
 10/13=100,45=16/2;
 6/7=2,8=2,9=2,10=2,28=1/1;
 99/9=1/99;
 Leave Link    1 at Tue May 11 10:24:52 2021, MaxMem=  1342177280 cpu:               0.2 elap:               0.0
 (Enter /Applications/g16/l101.exe)
 ------------------------------------------------------------
 /Users/wangzhe/Desktop/benzene_ICSS_XY_1//Created_by_ICSSgen
 ------------------------------------------------------------
 Symbolic Z-matrix:
 Charge =  0 Multiplicity = 1
 C                    -1.33924  -0.39585   0.00001 
 C                    -0.32669  -1.35773   0.00007 
 C                     1.01242  -0.96188  -0.00006 
 C                     1.3392    0.39597   0.00001 
 C                     0.3268    1.3577    0.00006 
 C                    -1.0125    0.9618   -0.00006 
 H                    -2.38133  -0.70401  -0.00007 
 H                    -0.58109  -2.41425   0.00008 
 H                     1.80038  -1.71023  -0.00015 
 H                     2.38137   0.70386   0.00001 
 H                     0.58095   2.41427   0.00002 
 H                    -1.80028   1.71035  -0.00006 
 Bq                   -3.5      -3.5       1. 
 Bq                   -3.5      -3.3       1. 
 Bq                   -3.5      -3.1       1. 
 Bq                   -3.5      -2.9       1. 
 Bq                   -3.5      -2.7       1. 
 Bq                   -3.5      -2.5       1. 
 Bq                   -3.5      -2.3       1. 
 Bq                   -3.5      -2.1       1. 
 Bq                   -3.5      -1.9       1. 
 Bq                   -3.5      -1.7       1. 
 Bq                   -3.5      -1.5       1. 
 Bq                   -3.5      -1.3       1. 
 Bq                   -3.5      -1.1       1. 
 Bq                   -3.5      -0.9       1. 
 Bq                   -3.5      -0.7       1. 
 Bq                   -3.5      -0.5       1. 
 Bq                   -3.5      -0.3       1. 
 Bq                   -3.5      -0.1       1. 
 Bq                   -3.5       0.1       1. 
 Bq                   -3.5       0.3       1. 
 Bq                   -3.5       0.5       1. 
 Bq                   -3.5       0.7       1. 
 Bq                   -3.5       0.9       1. 
 Bq                   -3.5       1.1       1. 
 Bq                   -3.5       1.3       1. 
 Bq                   -3.5       1.5       1. 
 Bq                   -3.5       1.7       1. 
 Bq                   -3.5       1.9       1. 
 Bq                   -3.5       2.1       1. 
 Bq                   -3.5       2.3       1. 
 Bq                   -3.5       2.5       1. 
 Bq                   -3.5       2.7       1. 
 Bq                   -3.5       2.9       1. 
 Bq                   -3.5       3.1       1. 
 Bq                   -3.5       3.3       1. 
 Bq                   -3.5       3.5       1. 
 Bq                   -3.3      -3.5       1. 
 Bq                   -3.3      -3.3       1. 
 Bq                   -3.3      -3.1       1. 
 Bq                   -3.3      -2.9       1. 
 Bq                   -3.3      -2.7       1. 
 Bq                   -3.3      -2.5       1. 
 Bq                   -3.3      -2.3       1. 
 Bq                   -3.3      -2.1       1. 
 Bq                   -3.3      -1.9       1. 
 Bq                   -3.3      -1.7       1. 
 Bq                   -3.3      -1.5       1. 
 Bq                   -3.3      -1.3       1. 
 Bq                   -3.3      -1.1       1. 
 Bq                   -3.3      -0.9       1. 
 Bq                   -3.3      -0.7       1. 
 Bq                   -3.3      -0.5       1. 
 Bq                   -3.3      -0.3       1. 
 Bq                   -3.3      -0.1       1. 
 Bq                   -3.3       0.1       1. 
 Bq                   -3.3       0.3       1. 
 Bq                   -3.3       0.5       1. 
 Bq                   -3.3       0.7       1. 
 Bq                   -3.3       0.9       1. 
 Bq                   -3.3       1.1       1. 
 Bq                   -3.3       1.3       1. 
 Bq                   -3.3       1.5       1. 
 Bq                   -3.3       1.7       1. 
 Bq                   -3.3       1.9       1. 
 Bq                   -3.3       2.1       1. 
 Bq                   -3.3       2.3       1. 
 Bq                   -3.3       2.5       1. 
 Bq                   -3.3       2.7       1. 
 Bq                   -3.3       2.9       1. 
 Bq                   -3.3       3.1       1. 
 Bq                   -3.3       3.3       1. 
 Bq                   -3.3       3.5       1. 
 Bq                   -3.1      -3.5       1. 
 Bq                   -3.1      -3.3       1. 
 Bq                   -3.1      -3.1       1. 
 Bq                   -3.1      -2.9       1. 
 Bq                   -3.1      -2.7       1. 
 Bq                   -3.1      -2.5       1. 
 Bq                   -3.1      -2.3       1. 
 Bq                   -3.1      -2.1       1. 
 Bq                   -3.1      -1.9       1. 
 Bq                   -3.1      -1.7       1. 
 Bq                   -3.1      -1.5       1. 
 Bq                   -3.1      -1.3       1. 
 Bq                   -3.1      -1.1       1. 
 Bq                   -3.1      -0.9       1. 
 Bq                   -3.1      -0.7       1. 
 Bq                   -3.1      -0.5       1. 
 Bq                   -3.1      -0.3       1. 
 Bq                   -3.1      -0.1       1. 
 Bq                   -3.1       0.1       1. 
 Bq                   -3.1       0.3       1. 
 Bq                   -3.1       0.5       1. 
 Bq                   -3.1       0.7       1. 
 Bq                   -3.1       0.9       1. 
 Bq                   -3.1       1.1       1. 
 Bq                   -3.1       1.3       1. 
 Bq                   -3.1       1.5       1. 
 Bq                   -3.1       1.7       1. 
 Bq                   -3.1       1.9       1. 
 Bq                   -3.1       2.1       1. 
 Bq                   -3.1       2.3       1. 
 Bq                   -3.1       2.5       1. 
 Bq                   -3.1       2.7       1. 
 Bq                   -3.1       2.9       1. 
 Bq                   -3.1       3.1       1. 
 Bq                   -3.1       3.3       1. 
 Bq                   -3.1       3.5       1. 
 Bq                   -2.9      -3.5       1. 
 Bq                   -2.9      -3.3       1. 
 Bq                   -2.9      -3.1       1. 
 Bq                   -2.9      -2.9       1. 
 Bq                   -2.9      -2.7       1. 
 Bq                   -2.9      -2.5       1. 
 Bq                   -2.9      -2.3       1. 
 Bq                   -2.9      -2.1       1. 
 Bq                   -2.9      -1.9       1. 
 Bq                   -2.9      -1.7       1. 
 Bq                   -2.9      -1.5       1. 
 Bq                   -2.9      -1.3       1. 
 Bq                   -2.9      -1.1       1. 
 Bq                   -2.9      -0.9       1. 
 Bq                   -2.9      -0.7       1. 
 Bq                   -2.9      -0.5       1. 
 Bq                   -2.9      -0.3       1. 
 Bq                   -2.9      -0.1       1. 
 Bq                   -2.9       0.1       1. 
 Bq                   -2.9       0.3       1. 
 Bq                   -2.9       0.5       1. 
 Bq                   -2.9       0.7       1. 
 Bq                   -2.9       0.9       1. 
 Bq                   -2.9       1.1       1. 
 Bq                   -2.9       1.3       1. 
 Bq                   -2.9       1.5       1. 
 Bq                   -2.9       1.7       1. 
 Bq                   -2.9       1.9       1. 
 Bq                   -2.9       2.1       1. 
 Bq                   -2.9       2.3       1. 
 Bq                   -2.9       2.5       1. 
 Bq                   -2.9       2.7       1. 
 Bq                   -2.9       2.9       1. 
 Bq                   -2.9       3.1       1. 
 Bq                   -2.9       3.3       1. 
 Bq                   -2.9       3.5       1. 
 Bq                   -2.7      -3.5       1. 
 Bq                   -2.7      -3.3       1. 
 Bq                   -2.7      -3.1       1. 
 Bq                   -2.7      -2.9       1. 
 Bq                   -2.7      -2.7       1. 
 Bq                   -2.7      -2.5       1. 
 Bq                   -2.7      -2.3       1. 
 Bq                   -2.7      -2.1       1. 
 Bq                   -2.7      -1.9       1. 
 Bq                   -2.7      -1.7       1. 
 Bq                   -2.7      -1.5       1. 
 Bq                   -2.7      -1.3       1. 
 Bq                   -2.7      -1.1       1. 
 Bq                   -2.7      -0.9       1. 
 Bq                   -2.7      -0.7       1. 
 Bq                   -2.7      -0.5       1. 
 Bq                   -2.7      -0.3       1. 
 Bq                   -2.7      -0.1       1. 
 Bq                   -2.7       0.1       1. 
 Bq                   -2.7       0.3       1. 
 Bq                   -2.7       0.5       1. 
 Bq                   -2.7       0.7       1. 
 Bq                   -2.7       0.9       1. 
 Bq                   -2.7       1.1       1. 
 Bq                   -2.7       1.3       1. 
 Bq                   -2.7       1.5       1. 
 Bq                   -2.7       1.7       1. 
 Bq                   -2.7       1.9       1. 
 Bq                   -2.7       2.1       1. 
 Bq                   -2.7       2.3       1. 
 Bq                   -2.7       2.5       1. 
 Bq                   -2.7       2.7       1. 
 Bq                   -2.7       2.9       1. 
 Bq                   -2.7       3.1       1. 
 Bq                   -2.7       3.3       1. 
 Bq                   -2.7       3.5       1. 
 Bq                   -2.5      -3.5       1. 
 Bq                   -2.5      -3.3       1. 
 Bq                   -2.5      -3.1       1. 
 Bq                   -2.5      -2.9       1. 
 Bq                   -2.5      -2.7       1. 
 Bq                   -2.5      -2.5       1. 
 Bq                   -2.5      -2.3       1. 
 Bq                   -2.5      -2.1       1. 
 Bq                   -2.5      -1.9       1. 
 Bq                   -2.5      -1.7       1. 
 Bq                   -2.5      -1.5       1. 
 Bq                   -2.5      -1.3       1. 
 Bq                   -2.5      -1.1       1. 
 Bq                   -2.5      -0.9       1. 
 Bq                   -2.5      -0.7       1. 
 Bq                   -2.5      -0.5       1. 
 Bq                   -2.5      -0.3       1. 
 Bq                   -2.5      -0.1       1. 
 Bq                   -2.5       0.1       1. 
 Bq                   -2.5       0.3       1. 
 Bq                   -2.5       0.5       1. 
 Bq                   -2.5       0.7       1. 
 Bq                   -2.5       0.9       1. 
 Bq                   -2.5       1.1       1. 
 Bq                   -2.5       1.3       1. 
 Bq                   -2.5       1.5       1. 
 Bq                   -2.5       1.7       1. 
 Bq                   -2.5       1.9       1. 
 Bq                   -2.5       2.1       1. 
 Bq                   -2.5       2.3       1. 
 Bq                   -2.5       2.5       1. 
 Bq                   -2.5       2.7       1. 
 Bq                   -2.5       2.9       1. 
 Bq                   -2.5       3.1       1. 
 Bq                   -2.5       3.3       1. 
 Bq                   -2.5       3.5       1. 
 Bq                   -2.3      -3.5       1. 
 Bq                   -2.3      -3.3       1. 
 Bq                   -2.3      -3.1       1. 
 Bq                   -2.3      -2.9       1. 
 Bq                   -2.3      -2.7       1. 
 Bq                   -2.3      -2.5       1. 
 Bq                   -2.3      -2.3       1. 
 Bq                   -2.3      -2.1       1. 
 Bq                   -2.3      -1.9       1. 
 Bq                   -2.3      -1.7       1. 
 Bq                   -2.3      -1.5       1. 
 Bq                   -2.3      -1.3       1. 
 Bq                   -2.3      -1.1       1. 
 Bq                   -2.3      -0.9       1. 
 Bq                   -2.3      -0.7       1. 
 Bq                   -2.3      -0.5       1. 
 Bq                   -2.3      -0.3       1. 
 Bq                   -2.3      -0.1       1. 
 Bq                   -2.3       0.1       1. 
 Bq                   -2.3       0.3       1. 
 Bq                   -2.3       0.5       1. 
 Bq                   -2.3       0.7       1. 
 Bq                   -2.3       0.9       1. 
 Bq                   -2.3       1.1       1. 
 Bq                   -2.3       1.3       1. 
 Bq                   -2.3       1.5       1. 
 Bq                   -2.3       1.7       1. 
 Bq                   -2.3       1.9       1. 
 Bq                   -2.3       2.1       1. 
 Bq                   -2.3       2.3       1. 
 Bq                   -2.3       2.5       1. 
 Bq                   -2.3       2.7       1. 
 Bq                   -2.3       2.9       1. 
 Bq                   -2.3       3.1       1. 
 Bq                   -2.3       3.3       1. 
 Bq                   -2.3       3.5       1. 
 Bq                   -2.1      -3.5       1. 
 Bq                   -2.1      -3.3       1. 
 Bq                   -2.1      -3.1       1. 
 Bq                   -2.1      -2.9       1. 
 Bq                   -2.1      -2.7       1. 
 Bq                   -2.1      -2.5       1. 
 Bq                   -2.1      -2.3       1. 
 Bq                   -2.1      -2.1       1. 
 Bq                   -2.1      -1.9       1. 
 Bq                   -2.1      -1.7       1. 
 Bq                   -2.1      -1.5       1. 
 Bq                   -2.1      -1.3       1. 
 Bq                   -2.1      -1.1       1. 
 Bq                   -2.1      -0.9       1. 
 Bq                   -2.1      -0.7       1. 
 Bq                   -2.1      -0.5       1. 
 Bq                   -2.1      -0.3       1. 
 Bq                   -2.1      -0.1       1. 
 Bq                   -2.1       0.1       1. 
 Bq                   -2.1       0.3       1. 
 Bq                   -2.1       0.5       1. 
 Bq                   -2.1       0.7       1. 
 Bq                   -2.1       0.9       1. 
 Bq                   -2.1       1.1       1. 
 Bq                   -2.1       1.3       1. 
 Bq                   -2.1       1.5       1. 
 Bq                   -2.1       1.7       1. 
 Bq                   -2.1       1.9       1. 
 Bq                   -2.1       2.1       1. 
 Bq                   -2.1       2.3       1. 
 Bq                   -2.1       2.5       1. 
 Bq                   -2.1       2.7       1. 
 Bq                   -2.1       2.9       1. 
 Bq                   -2.1       3.1       1. 
 Bq                   -2.1       3.3       1. 
 Bq                   -2.1       3.5       1. 
 Bq                   -1.9      -3.5       1. 
 Bq                   -1.9      -3.3       1. 
 Bq                   -1.9      -3.1       1. 
 Bq                   -1.9      -2.9       1. 
 Bq                   -1.9      -2.7       1. 
 Bq                   -1.9      -2.5       1. 
 Bq                   -1.9      -2.3       1. 
 Bq                   -1.9      -2.1       1. 
 Bq                   -1.9      -1.9       1. 
 Bq                   -1.9      -1.7       1. 
 Bq                   -1.9      -1.5       1. 
 Bq                   -1.9      -1.3       1. 
 Bq                   -1.9      -1.1       1. 
 Bq                   -1.9      -0.9       1. 
 Bq                   -1.9      -0.7       1. 
 Bq                   -1.9      -0.5       1. 
 Bq                   -1.9      -0.3       1. 
 Bq                   -1.9      -0.1       1. 
 Bq                   -1.9       0.1       1. 
 Bq                   -1.9       0.3       1. 
 Bq                   -1.9       0.5       1. 
 Bq                   -1.9       0.7       1. 
 Bq                   -1.9       0.9       1. 
 Bq                   -1.9       1.1       1. 
 Bq                   -1.9       1.3       1. 
 Bq                   -1.9       1.5       1. 
 Bq                   -1.9       1.7       1. 
 Bq                   -1.9       1.9       1. 
 Bq                   -1.9       2.1       1. 
 Bq                   -1.9       2.3       1. 
 Bq                   -1.9       2.5       1. 
 Bq                   -1.9       2.7       1. 
 Bq                   -1.9       2.9       1. 
 Bq                   -1.9       3.1       1. 
 Bq                   -1.9       3.3       1. 
 Bq                   -1.9       3.5       1. 
 Bq                   -1.7      -3.5       1. 
 Bq                   -1.7      -3.3       1. 
 Bq                   -1.7      -3.1       1. 
 Bq                   -1.7      -2.9       1. 
 Bq                   -1.7      -2.7       1. 
 Bq                   -1.7      -2.5       1. 
 Bq                   -1.7      -2.3       1. 
 Bq                   -1.7      -2.1       1. 
 Bq                   -1.7      -1.9       1. 
 Bq                   -1.7      -1.7       1. 
 Bq                   -1.7      -1.5       1. 
 Bq                   -1.7      -1.3       1. 
 Bq                   -1.7      -1.1       1. 
 Bq                   -1.7      -0.9       1. 
 Bq                   -1.7      -0.7       1. 
 Bq                   -1.7      -0.5       1. 
 Bq                   -1.7      -0.3       1. 
 Bq                   -1.7      -0.1       1. 
 Bq                   -1.7       0.1       1. 
 Bq                   -1.7       0.3       1. 
 Bq                   -1.7       0.5       1. 
 Bq                   -1.7       0.7       1. 
 Bq                   -1.7       0.9       1. 
 Bq                   -1.7       1.1       1. 
 Bq                   -1.7       1.3       1. 
 Bq                   -1.7       1.5       1. 
 Bq                   -1.7       1.7       1. 
 Bq                   -1.7       1.9       1. 
 Bq                   -1.7       2.1       1. 
 Bq                   -1.7       2.3       1. 
 Bq                   -1.7       2.5       1. 
 Bq                   -1.7       2.7       1. 
 Bq                   -1.7       2.9       1. 
 Bq                   -1.7       3.1       1. 
 Bq                   -1.7       3.3       1. 
 Bq                   -1.7       3.5       1. 
 Bq                   -1.5      -3.5       1. 
 Bq                   -1.5      -3.3       1. 
 Bq                   -1.5      -3.1       1. 
 Bq                   -1.5      -2.9       1. 
 Bq                   -1.5      -2.7       1. 
 Bq                   -1.5      -2.5       1. 
 Bq                   -1.5      -2.3       1. 
 Bq                   -1.5      -2.1       1. 
 Bq                   -1.5      -1.9       1. 
 Bq                   -1.5      -1.7       1. 
 Bq                   -1.5      -1.5       1. 
 Bq                   -1.5      -1.3       1. 
 Bq                   -1.5      -1.1       1. 
 Bq                   -1.5      -0.9       1. 
 Bq                   -1.5      -0.7       1. 
 Bq                   -1.5      -0.5       1. 
 Bq                   -1.5      -0.3       1. 
 Bq                   -1.5      -0.1       1. 
 Bq                   -1.5       0.1       1. 
 Bq                   -1.5       0.3       1. 
 Bq                   -1.5       0.5       1. 
 Bq                   -1.5       0.7       1. 
 Bq                   -1.5       0.9       1. 
 Bq                   -1.5       1.1       1. 
 Bq                   -1.5       1.3       1. 
 Bq                   -1.5       1.5       1. 
 Bq                   -1.5       1.7       1. 
 Bq                   -1.5       1.9       1. 
 Bq                   -1.5       2.1       1. 
 Bq                   -1.5       2.3       1. 
 Bq                   -1.5       2.5       1. 
 Bq                   -1.5       2.7       1. 
 Bq                   -1.5       2.9       1. 
 Bq                   -1.5       3.1       1. 
 Bq                   -1.5       3.3       1. 
 Bq                   -1.5       3.5       1. 
 Bq                   -1.3      -3.5       1. 
 Bq                   -1.3      -3.3       1. 
 Bq                   -1.3      -3.1       1. 
 Bq                   -1.3      -2.9       1. 
 Bq                   -1.3      -2.7       1. 
 Bq                   -1.3      -2.5       1. 
 Bq                   -1.3      -2.3       1. 
 Bq                   -1.3      -2.1       1. 
 Bq                   -1.3      -1.9       1. 
 Bq                   -1.3      -1.7       1. 
 Bq                   -1.3      -1.5       1. 
 Bq                   -1.3      -1.3       1. 
 Bq                   -1.3      -1.1       1. 
 Bq                   -1.3      -0.9       1. 
 Bq                   -1.3      -0.7       1. 
 Bq                   -1.3      -0.5       1. 
 Bq                   -1.3      -0.3       1. 
 Bq                   -1.3      -0.1       1. 
 Bq                   -1.3       0.1       1. 
 Bq                   -1.3       0.3       1. 
 Bq                   -1.3       0.5       1. 
 Bq                   -1.3       0.7       1. 
 Bq                   -1.3       0.9       1. 
 Bq                   -1.3       1.1       1. 
 Bq                   -1.3       1.3       1. 
 Bq                   -1.3       1.5       1. 
 Bq                   -1.3       1.7       1. 
 Bq                   -1.3       1.9       1. 
 Bq                   -1.3       2.1       1. 
 Bq                   -1.3       2.3       1. 
 Bq                   -1.3       2.5       1. 
 Bq                   -1.3       2.7       1. 
 Bq                   -1.3       2.9       1. 
 Bq                   -1.3       3.1       1. 
 Bq                   -1.3       3.3       1. 
 Bq                   -1.3       3.5       1. 
 Bq                   -1.1      -3.5       1. 
 Bq                   -1.1      -3.3       1. 
 Bq                   -1.1      -3.1       1. 
 Bq                   -1.1      -2.9       1. 
 Bq                   -1.1      -2.7       1. 
 Bq                   -1.1      -2.5       1. 
 Bq                   -1.1      -2.3       1. 
 Bq                   -1.1      -2.1       1. 
 Bq                   -1.1      -1.9       1. 
 Bq                   -1.1      -1.7       1. 
 Bq                   -1.1      -1.5       1. 
 Bq                   -1.1      -1.3       1. 
 Bq                   -1.1      -1.1       1. 
 Bq                   -1.1      -0.9       1. 
 Bq                   -1.1      -0.7       1. 
 Bq                   -1.1      -0.5       1. 
 Bq                   -1.1      -0.3       1. 
 Bq                   -1.1      -0.1       1. 
 Bq                   -1.1       0.1       1. 
 Bq                   -1.1       0.3       1. 
 Bq                   -1.1       0.5       1. 
 Bq                   -1.1       0.7       1. 
 Bq                   -1.1       0.9       1. 
 Bq                   -1.1       1.1       1. 
 Bq                   -1.1       1.3       1. 
 Bq                   -1.1       1.5       1. 
 Bq                   -1.1       1.7       1. 
 Bq                   -1.1       1.9       1. 
 Bq                   -1.1       2.1       1. 
 Bq                   -1.1       2.3       1. 
 Bq                   -1.1       2.5       1. 
 Bq                   -1.1       2.7       1. 
 Bq                   -1.1       2.9       1. 
 Bq                   -1.1       3.1       1. 
 Bq                   -1.1       3.3       1. 
 Bq                   -1.1       3.5       1. 
 Bq                   -0.9      -3.5       1. 
 Bq                   -0.9      -3.3       1. 
 Bq                   -0.9      -3.1       1. 
 Bq                   -0.9      -2.9       1. 
 Bq                   -0.9      -2.7       1. 
 Bq                   -0.9      -2.5       1. 
 Bq                   -0.9      -2.3       1. 
 Bq                   -0.9      -2.1       1. 
 Bq                   -0.9      -1.9       1. 
 Bq                   -0.9      -1.7       1. 
 Bq                   -0.9      -1.5       1. 
 Bq                   -0.9      -1.3       1. 
 Bq                   -0.9      -1.1       1. 
 Bq                   -0.9      -0.9       1. 
 Bq                   -0.9      -0.7       1. 
 Bq                   -0.9      -0.5       1. 
 Bq                   -0.9      -0.3       1. 
 Bq                   -0.9      -0.1       1. 
 Bq                   -0.9       0.1       1. 
 Bq                   -0.9       0.3       1. 
 Bq                   -0.9       0.5       1. 
 Bq                   -0.9       0.7       1. 
 Bq                   -0.9       0.9       1. 
 Bq                   -0.9       1.1       1. 
 Bq                   -0.9       1.3       1. 
 Bq                   -0.9       1.5       1. 
 Bq                   -0.9       1.7       1. 
 Bq                   -0.9       1.9       1. 
 Bq                   -0.9       2.1       1. 
 Bq                   -0.9       2.3       1. 
 Bq                   -0.9       2.5       1. 
 Bq                   -0.9       2.7       1. 
 Bq                   -0.9       2.9       1. 
 Bq                   -0.9       3.1       1. 
 Bq                   -0.9       3.3       1. 
 Bq                   -0.9       3.5       1. 
 Bq                   -0.7      -3.5       1. 
 Bq                   -0.7      -3.3       1. 
 Bq                   -0.7      -3.1       1. 
 Bq                   -0.7      -2.9       1. 
 Bq                   -0.7      -2.7       1. 
 Bq                   -0.7      -2.5       1. 
 Bq                   -0.7      -2.3       1. 
 Bq                   -0.7      -2.1       1. 
 Bq                   -0.7      -1.9       1. 
 Bq                   -0.7      -1.7       1. 
 Bq                   -0.7      -1.5       1. 
 Bq                   -0.7      -1.3       1. 
 Bq                   -0.7      -1.1       1. 
 Bq                   -0.7      -0.9       1. 
 Bq                   -0.7      -0.7       1. 
 Bq                   -0.7      -0.5       1. 
 Bq                   -0.7      -0.3       1. 
 Bq                   -0.7      -0.1       1. 
 Bq                   -0.7       0.1       1. 
 Bq                   -0.7       0.3       1. 
 Bq                   -0.7       0.5       1. 
 Bq                   -0.7       0.7       1. 
 Bq                   -0.7       0.9       1. 
 Bq                   -0.7       1.1       1. 
 Bq                   -0.7       1.3       1. 
 Bq                   -0.7       1.5       1. 
 Bq                   -0.7       1.7       1. 
 Bq                   -0.7       1.9       1. 
 Bq                   -0.7       2.1       1. 
 Bq                   -0.7       2.3       1. 
 Bq                   -0.7       2.5       1. 
 Bq                   -0.7       2.7       1. 
 Bq                   -0.7       2.9       1. 
 Bq                   -0.7       3.1       1. 
 Bq                   -0.7       3.3       1. 
 Bq                   -0.7       3.5       1. 
 Bq                   -0.5      -3.5       1. 
 Bq                   -0.5      -3.3       1. 
 Bq                   -0.5      -3.1       1. 
 Bq                   -0.5      -2.9       1. 
 Bq                   -0.5      -2.7       1. 
 Bq                   -0.5      -2.5       1. 
 Bq                   -0.5      -2.3       1. 
 Bq                   -0.5      -2.1       1. 
 Bq                   -0.5      -1.9       1. 
 Bq                   -0.5      -1.7       1. 
 Bq                   -0.5      -1.5       1. 
 Bq                   -0.5      -1.3       1. 
 Bq                   -0.5      -1.1       1. 
 Bq                   -0.5      -0.9       1. 
 Bq                   -0.5      -0.7       1. 
 Bq                   -0.5      -0.5       1. 
 Bq                   -0.5      -0.3       1. 
 Bq                   -0.5      -0.1       1. 
 Bq                   -0.5       0.1       1. 
 Bq                   -0.5       0.3       1. 
 Bq                   -0.5       0.5       1. 
 Bq                   -0.5       0.7       1. 
 Bq                   -0.5       0.9       1. 
 Bq                   -0.5       1.1       1. 
 Bq                   -0.5       1.3       1. 
 Bq                   -0.5       1.5       1. 
 Bq                   -0.5       1.7       1. 
 Bq                   -0.5       1.9       1. 
 Bq                   -0.5       2.1       1. 
 Bq                   -0.5       2.3       1. 
 Bq                   -0.5       2.5       1. 
 Bq                   -0.5       2.7       1. 
 Bq                   -0.5       2.9       1. 
 Bq                   -0.5       3.1       1. 
 Bq                   -0.5       3.3       1. 
 Bq                   -0.5       3.5       1. 
 Bq                   -0.3      -3.5       1. 
 Bq                   -0.3      -3.3       1. 
 Bq                   -0.3      -3.1       1. 
 Bq                   -0.3      -2.9       1. 
 Bq                   -0.3      -2.7       1. 
 Bq                   -0.3      -2.5       1. 
 Bq                   -0.3      -2.3       1. 
 Bq                   -0.3      -2.1       1. 
 Bq                   -0.3      -1.9       1. 
 Bq                   -0.3      -1.7       1. 
 Bq                   -0.3      -1.5       1. 
 Bq                   -0.3      -1.3       1. 
 Bq                   -0.3      -1.1       1. 
 Bq                   -0.3      -0.9       1. 
 Bq                   -0.3      -0.7       1. 
 Bq                   -0.3      -0.5       1. 
 Bq                   -0.3      -0.3       1. 
 Bq                   -0.3      -0.1       1. 
 Bq                   -0.3       0.1       1. 
 Bq                   -0.3       0.3       1. 
 Bq                   -0.3       0.5       1. 
 Bq                   -0.3       0.7       1. 
 Bq                   -0.3       0.9       1. 
 Bq                   -0.3       1.1       1. 
 Bq                   -0.3       1.3       1. 
 Bq                   -0.3       1.5       1. 
 Bq                   -0.3       1.7       1. 
 Bq                   -0.3       1.9       1. 
 Bq                   -0.3       2.1       1. 
 Bq                   -0.3       2.3       1. 
 Bq                   -0.3       2.5       1. 
 Bq                   -0.3       2.7       1. 
 Bq                   -0.3       2.9       1. 
 Bq                   -0.3       3.1       1. 
 Bq                   -0.3       3.3       1. 
 Bq                   -0.3       3.5       1. 
 Bq                   -0.1      -3.5       1. 
 Bq                   -0.1      -3.3       1. 
 Bq                   -0.1      -3.1       1. 
 Bq                   -0.1      -2.9       1. 
 Bq                   -0.1      -2.7       1. 
 Bq                   -0.1      -2.5       1. 
 Bq                   -0.1      -2.3       1. 
 Bq                   -0.1      -2.1       1. 
 Bq                   -0.1      -1.9       1. 
 Bq                   -0.1      -1.7       1. 
 Bq                   -0.1      -1.5       1. 
 Bq                   -0.1      -1.3       1. 
 Bq                   -0.1      -1.1       1. 
 Bq                   -0.1      -0.9       1. 
 Bq                   -0.1      -0.7       1. 
 Bq                   -0.1      -0.5       1. 
 Bq                   -0.1      -0.3       1. 
 Bq                   -0.1      -0.1       1. 
 Bq                   -0.1       0.1       1. 
 Bq                   -0.1       0.3       1. 
 Bq                   -0.1       0.5       1. 
 Bq                   -0.1       0.7       1. 
 Bq                   -0.1       0.9       1. 
 Bq                   -0.1       1.1       1. 
 Bq                   -0.1       1.3       1. 
 Bq                   -0.1       1.5       1. 
 Bq                   -0.1       1.7       1. 
 Bq                   -0.1       1.9       1. 
 Bq                   -0.1       2.1       1. 
 Bq                   -0.1       2.3       1. 
 Bq                   -0.1       2.5       1. 
 Bq                   -0.1       2.7       1. 
 Bq                   -0.1       2.9       1. 
 Bq                   -0.1       3.1       1. 
 Bq                   -0.1       3.3       1. 
 Bq                   -0.1       3.5       1. 
 Bq                    0.1      -3.5       1. 
 Bq                    0.1      -3.3       1. 
 Bq                    0.1      -3.1       1. 
 Bq                    0.1      -2.9       1. 
 Bq                    0.1      -2.7       1. 
 Bq                    0.1      -2.5       1. 
 Bq                    0.1      -2.3       1. 
 Bq                    0.1      -2.1       1. 
 Bq                    0.1      -1.9       1. 
 Bq                    0.1      -1.7       1. 
 Bq                    0.1      -1.5       1. 
 Bq                    0.1      -1.3       1. 
 Bq                    0.1      -1.1       1. 
 Bq                    0.1      -0.9       1. 
 Bq                    0.1      -0.7       1. 
 Bq                    0.1      -0.5       1. 
 Bq                    0.1      -0.3       1. 
 Bq                    0.1      -0.1       1. 
 Bq                    0.1       0.1       1. 
 Bq                    0.1       0.3       1. 
 Bq                    0.1       0.5       1. 
 Bq                    0.1       0.7       1. 
 Bq                    0.1       0.9       1. 
 Bq                    0.1       1.1       1. 
 Bq                    0.1       1.3       1. 
 Bq                    0.1       1.5       1. 
 Bq                    0.1       1.7       1. 
 Bq                    0.1       1.9       1. 
 Bq                    0.1       2.1       1. 
 Bq                    0.1       2.3       1. 
 Bq                    0.1       2.5       1. 
 Bq                    0.1       2.7       1. 
 Bq                    0.1       2.9       1. 
 Bq                    0.1       3.1       1. 
 Bq                    0.1       3.3       1. 
 Bq                    0.1       3.5       1. 
 Bq                    0.3      -3.5       1. 
 Bq                    0.3      -3.3       1. 
 Bq                    0.3      -3.1       1. 
 Bq                    0.3      -2.9       1. 
 Bq                    0.3      -2.7       1. 
 Bq                    0.3      -2.5       1. 
 Bq                    0.3      -2.3       1. 
 Bq                    0.3      -2.1       1. 
 Bq                    0.3      -1.9       1. 
 Bq                    0.3      -1.7       1. 
 Bq                    0.3      -1.5       1. 
 Bq                    0.3      -1.3       1. 
 Bq                    0.3      -1.1       1. 
 Bq                    0.3      -0.9       1. 
 Bq                    0.3      -0.7       1. 
 Bq                    0.3      -0.5       1. 
 Bq                    0.3      -0.3       1. 
 Bq                    0.3      -0.1       1. 
 Bq                    0.3       0.1       1. 
 Bq                    0.3       0.3       1. 
 Bq                    0.3       0.5       1. 
 Bq                    0.3       0.7       1. 
 Bq                    0.3       0.9       1. 
 Bq                    0.3       1.1       1. 
 Bq                    0.3       1.3       1. 
 Bq                    0.3       1.5       1. 
 Bq                    0.3       1.7       1. 
 Bq                    0.3       1.9       1. 
 Bq                    0.3       2.1       1. 
 Bq                    0.3       2.3       1. 
 Bq                    0.3       2.5       1. 
 Bq                    0.3       2.7       1. 
 Bq                    0.3       2.9       1. 
 Bq                    0.3       3.1       1. 
 Bq                    0.3       3.3       1. 
 Bq                    0.3       3.5       1. 
 Bq                    0.5      -3.5       1. 
 Bq                    0.5      -3.3       1. 
 Bq                    0.5      -3.1       1. 
 Bq                    0.5      -2.9       1. 
 Bq                    0.5      -2.7       1. 
 Bq                    0.5      -2.5       1. 
 Bq                    0.5      -2.3       1. 
 Bq                    0.5      -2.1       1. 
 Bq                    0.5      -1.9       1. 
 Bq                    0.5      -1.7       1. 
 Bq                    0.5      -1.5       1. 
 Bq                    0.5      -1.3       1. 
 Bq                    0.5      -1.1       1. 
 Bq                    0.5      -0.9       1. 
 Bq                    0.5      -0.7       1. 
 Bq                    0.5      -0.5       1. 
 Bq                    0.5      -0.3       1. 
 Bq                    0.5      -0.1       1. 
 Bq                    0.5       0.1       1. 
 Bq                    0.5       0.3       1. 
 Bq                    0.5       0.5       1. 
 Bq                    0.5       0.7       1. 
 Bq                    0.5       0.9       1. 
 Bq                    0.5       1.1       1. 
 Bq                    0.5       1.3       1. 
 Bq                    0.5       1.5       1. 
 Bq                    0.5       1.7       1. 
 Bq                    0.5       1.9       1. 
 Bq                    0.5       2.1       1. 
 Bq                    0.5       2.3       1. 
 Bq                    0.5       2.5       1. 
 Bq                    0.5       2.7       1. 
 Bq                    0.5       2.9       1. 
 Bq                    0.5       3.1       1. 
 Bq                    0.5       3.3       1. 
 Bq                    0.5       3.5       1. 
 Bq                    0.7      -3.5       1. 
 Bq                    0.7      -3.3       1. 
 Bq                    0.7      -3.1       1. 
 Bq                    0.7      -2.9       1. 
 Bq                    0.7      -2.7       1. 
 Bq                    0.7      -2.5       1. 
 Bq                    0.7      -2.3       1. 
 Bq                    0.7      -2.1       1. 
 Bq                    0.7      -1.9       1. 
 Bq                    0.7      -1.7       1. 
 Bq                    0.7      -1.5       1. 
 Bq                    0.7      -1.3       1. 
 Bq                    0.7      -1.1       1. 
 Bq                    0.7      -0.9       1. 
 Bq                    0.7      -0.7       1. 
 Bq                    0.7      -0.5       1. 
 Bq                    0.7      -0.3       1. 
 Bq                    0.7      -0.1       1. 
 Bq                    0.7       0.1       1. 
 Bq                    0.7       0.3       1. 
 Bq                    0.7       0.5       1. 
 Bq                    0.7       0.7       1. 
 Bq                    0.7       0.9       1. 
 Bq                    0.7       1.1       1. 
 Bq                    0.7       1.3       1. 
 Bq                    0.7       1.5       1. 
 Bq                    0.7       1.7       1. 
 Bq                    0.7       1.9       1. 
 Bq                    0.7       2.1       1. 
 Bq                    0.7       2.3       1. 
 Bq                    0.7       2.5       1. 
 Bq                    0.7       2.7       1. 
 Bq                    0.7       2.9       1. 
 Bq                    0.7       3.1       1. 
 Bq                    0.7       3.3       1. 
 Bq                    0.7       3.5       1. 
 Bq                    0.9      -3.5       1. 
 Bq                    0.9      -3.3       1. 
 Bq                    0.9      -3.1       1. 
 Bq                    0.9      -2.9       1. 
 Bq                    0.9      -2.7       1. 
 Bq                    0.9      -2.5       1. 
 Bq                    0.9      -2.3       1. 
 Bq                    0.9      -2.1       1. 
 Bq                    0.9      -1.9       1. 
 Bq                    0.9      -1.7       1. 
 Bq                    0.9      -1.5       1. 
 Bq                    0.9      -1.3       1. 
 Bq                    0.9      -1.1       1. 
 Bq                    0.9      -0.9       1. 
 Bq                    0.9      -0.7       1. 
 Bq                    0.9      -0.5       1. 
 Bq                    0.9      -0.3       1. 
 Bq                    0.9      -0.1       1. 
 Bq                    0.9       0.1       1. 
 Bq                    0.9       0.3       1. 
 Bq                    0.9       0.5       1. 
 Bq                    0.9       0.7       1. 
 Bq                    0.9       0.9       1. 
 Bq                    0.9       1.1       1. 
 Bq                    0.9       1.3       1. 
 Bq                    0.9       1.5       1. 
 Bq                    0.9       1.7       1. 
 Bq                    0.9       1.9       1. 
 Bq                    0.9       2.1       1. 
 Bq                    0.9       2.3       1. 
 Bq                    0.9       2.5       1. 
 Bq                    0.9       2.7       1. 
 Bq                    0.9       2.9       1. 
 Bq                    0.9       3.1       1. 
 Bq                    0.9       3.3       1. 
 Bq                    0.9       3.5       1. 
 Bq                    1.1      -3.5       1. 
 Bq                    1.1      -3.3       1. 
 Bq                    1.1      -3.1       1. 
 Bq                    1.1      -2.9       1. 
 Bq                    1.1      -2.7       1. 
 Bq                    1.1      -2.5       1. 
 Bq                    1.1      -2.3       1. 
 Bq                    1.1      -2.1       1. 
 Bq                    1.1      -1.9       1. 
 Bq                    1.1      -1.7       1. 
 Bq                    1.1      -1.5       1. 
 Bq                    1.1      -1.3       1. 
 Bq                    1.1      -1.1       1. 
 Bq                    1.1      -0.9       1. 
 Bq                    1.1      -0.7       1. 
 Bq                    1.1      -0.5       1. 
 Bq                    1.1      -0.3       1. 
 Bq                    1.1      -0.1       1. 
 Bq                    1.1       0.1       1. 
 Bq                    1.1       0.3       1. 
 Bq                    1.1       0.5       1. 
 Bq                    1.1       0.7       1. 
 Bq                    1.1       0.9       1. 
 Bq                    1.1       1.1       1. 
 Bq                    1.1       1.3       1. 
 Bq                    1.1       1.5       1. 
 Bq                    1.1       1.7       1. 
 Bq                    1.1       1.9       1. 
 Bq                    1.1       2.1       1. 
 Bq                    1.1       2.3       1. 
 Bq                    1.1       2.5       1. 
 Bq                    1.1       2.7       1. 
 Bq                    1.1       2.9       1. 
 Bq                    1.1       3.1       1. 
 Bq                    1.1       3.3       1. 
 Bq                    1.1       3.5       1. 
 Bq                    1.3      -3.5       1. 
 Bq                    1.3      -3.3       1. 
 Bq                    1.3      -3.1       1. 
 Bq                    1.3      -2.9       1. 
 Bq                    1.3      -2.7       1. 
 Bq                    1.3      -2.5       1. 
 Bq                    1.3      -2.3       1. 
 Bq                    1.3      -2.1       1. 
 Bq                    1.3      -1.9       1. 
 Bq                    1.3      -1.7       1. 
 Bq                    1.3      -1.5       1. 
 Bq                    1.3      -1.3       1. 
 Bq                    1.3      -1.1       1. 
 Bq                    1.3      -0.9       1. 
 Bq                    1.3      -0.7       1. 
 Bq                    1.3      -0.5       1. 
 Bq                    1.3      -0.3       1. 
 Bq                    1.3      -0.1       1. 
 Bq                    1.3       0.1       1. 
 Bq                    1.3       0.3       1. 
 Bq                    1.3       0.5       1. 
 Bq                    1.3       0.7       1. 
 Bq                    1.3       0.9       1. 
 Bq                    1.3       1.1       1. 
 Bq                    1.3       1.3       1. 
 Bq                    1.3       1.5       1. 
 Bq                    1.3       1.7       1. 
 Bq                    1.3       1.9       1. 
 Bq                    1.3       2.1       1. 
 Bq                    1.3       2.3       1. 
 Bq                    1.3       2.5       1. 
 Bq                    1.3       2.7       1. 
 Bq                    1.3       2.9       1. 
 Bq                    1.3       3.1       1. 
 Bq                    1.3       3.3       1. 
 Bq                    1.3       3.5       1. 
 Bq                    1.5      -3.5       1. 
 Bq                    1.5      -3.3       1. 
 Bq                    1.5      -3.1       1. 
 Bq                    1.5      -2.9       1. 
 Bq                    1.5      -2.7       1. 
 Bq                    1.5      -2.5       1. 
 Bq                    1.5      -2.3       1. 
 Bq                    1.5      -2.1       1. 
 Bq                    1.5      -1.9       1. 
 Bq                    1.5      -1.7       1. 
 Bq                    1.5      -1.5       1. 
 Bq                    1.5      -1.3       1. 
 Bq                    1.5      -1.1       1. 
 Bq                    1.5      -0.9       1. 
 Bq                    1.5      -0.7       1. 
 Bq                    1.5      -0.5       1. 
 Bq                    1.5      -0.3       1. 
 Bq                    1.5      -0.1       1. 
 Bq                    1.5       0.1       1. 
 Bq                    1.5       0.3       1. 
 Bq                    1.5       0.5       1. 
 Bq                    1.5       0.7       1. 
 Bq                    1.5       0.9       1. 
 Bq                    1.5       1.1       1. 
 Bq                    1.5       1.3       1. 
 Bq                    1.5       1.5       1. 
 Bq                    1.5       1.7       1. 
 Bq                    1.5       1.9       1. 
 Bq                    1.5       2.1       1. 
 Bq                    1.5       2.3       1. 
 Bq                    1.5       2.5       1. 
 Bq                    1.5       2.7       1. 
 Bq                    1.5       2.9       1. 
 Bq                    1.5       3.1       1. 
 Bq                    1.5       3.3       1. 
 Bq                    1.5       3.5       1. 
 Bq                    1.7      -3.5       1. 
 Bq                    1.7      -3.3       1. 
 Bq                    1.7      -3.1       1. 
 Bq                    1.7      -2.9       1. 
 Bq                    1.7      -2.7       1. 
 Bq                    1.7      -2.5       1. 
 Bq                    1.7      -2.3       1. 
 Bq                    1.7      -2.1       1. 
 Bq                    1.7      -1.9       1. 
 Bq                    1.7      -1.7       1. 
 Bq                    1.7      -1.5       1. 
 Bq                    1.7      -1.3       1. 
 Bq                    1.7      -1.1       1. 
 Bq                    1.7      -0.9       1. 
 Bq                    1.7      -0.7       1. 
 Bq                    1.7      -0.5       1. 
 Bq                    1.7      -0.3       1. 
 Bq                    1.7      -0.1       1. 
 Bq                    1.7       0.1       1. 
 Bq                    1.7       0.3       1. 
 Bq                    1.7       0.5       1. 
 Bq                    1.7       0.7       1. 
 Bq                    1.7       0.9       1. 
 Bq                    1.7       1.1       1. 
 Bq                    1.7       1.3       1. 
 Bq                    1.7       1.5       1. 
 Bq                    1.7       1.7       1. 
 Bq                    1.7       1.9       1. 
 Bq                    1.7       2.1       1. 
 Bq                    1.7       2.3       1. 
 Bq                    1.7       2.5       1. 
 Bq                    1.7       2.7       1. 
 Bq                    1.7       2.9       1. 
 Bq                    1.7       3.1       1. 
 Bq                    1.7       3.3       1. 
 Bq                    1.7       3.5       1. 
 Bq                    1.9      -3.5       1. 
 Bq                    1.9      -3.3       1. 
 Bq                    1.9      -3.1       1. 
 Bq                    1.9      -2.9       1. 
 Bq                    1.9      -2.7       1. 
 Bq                    1.9      -2.5       1. 
 Bq                    1.9      -2.3       1. 
 Bq                    1.9      -2.1       1. 
 Bq                    1.9      -1.9       1. 
 Bq                    1.9      -1.7       1. 
 Bq                    1.9      -1.5       1. 
 Bq                    1.9      -1.3       1. 
 Bq                    1.9      -1.1       1. 
 Bq                    1.9      -0.9       1. 
 Bq                    1.9      -0.7       1. 
 Bq                    1.9      -0.5       1. 
 Bq                    1.9      -0.3       1. 
 Bq                    1.9      -0.1       1. 
 Bq                    1.9       0.1       1. 
 Bq                    1.9       0.3       1. 
 Bq                    1.9       0.5       1. 
 Bq                    1.9       0.7       1. 
 Bq                    1.9       0.9       1. 
 Bq                    1.9       1.1       1. 
 Bq                    1.9       1.3       1. 
 Bq                    1.9       1.5       1. 
 Bq                    1.9       1.7       1. 
 Bq                    1.9       1.9       1. 
 Bq                    1.9       2.1       1. 
 Bq                    1.9       2.3       1. 
 Bq                    1.9       2.5       1. 
 Bq                    1.9       2.7       1. 
 Bq                    1.9       2.9       1. 
 Bq                    1.9       3.1       1. 
 Bq                    1.9       3.3       1. 
 Bq                    1.9       3.5       1. 
 Bq                    2.1      -3.5       1. 
 Bq                    2.1      -3.3       1. 
 Bq                    2.1      -3.1       1. 
 Bq                    2.1      -2.9       1. 
 Bq                    2.1      -2.7       1. 
 Bq                    2.1      -2.5       1. 
 Bq                    2.1      -2.3       1. 
 Bq                    2.1      -2.1       1. 
 Bq                    2.1      -1.9       1. 
 Bq                    2.1      -1.7       1. 
 Bq                    2.1      -1.5       1. 
 Bq                    2.1      -1.3       1. 
 Bq                    2.1      -1.1       1. 
 Bq                    2.1      -0.9       1. 
 Bq                    2.1      -0.7       1. 
 Bq                    2.1      -0.5       1. 
 Bq                    2.1      -0.3       1. 
 Bq                    2.1      -0.1       1. 
 Bq                    2.1       0.1       1. 
 Bq                    2.1       0.3       1. 
 Bq                    2.1       0.5       1. 
 Bq                    2.1       0.7       1. 
 Bq                    2.1       0.9       1. 
 Bq                    2.1       1.1       1. 
 Bq                    2.1       1.3       1. 
 Bq                    2.1       1.5       1. 
 Bq                    2.1       1.7       1. 
 Bq                    2.1       1.9       1. 
 Bq                    2.1       2.1       1. 
 Bq                    2.1       2.3       1. 
 Bq                    2.1       2.5       1. 
 Bq                    2.1       2.7       1. 
 Bq                    2.1       2.9       1. 
 Bq                    2.1       3.1       1. 
 Bq                    2.1       3.3       1. 
 Bq                    2.1       3.5       1. 
 Bq                    2.3      -3.5       1. 
 Bq                    2.3      -3.3       1. 
 Bq                    2.3      -3.1       1. 
 Bq                    2.3      -2.9       1. 
 Bq                    2.3      -2.7       1. 
 Bq                    2.3      -2.5       1. 
 Bq                    2.3      -2.3       1. 
 Bq                    2.3      -2.1       1. 
 Bq                    2.3      -1.9       1. 
 Bq                    2.3      -1.7       1. 
 Bq                    2.3      -1.5       1. 
 Bq                    2.3      -1.3       1. 
 Bq                    2.3      -1.1       1. 
 Bq                    2.3      -0.9       1. 
 Bq                    2.3      -0.7       1. 
 Bq                    2.3      -0.5       1. 
 Bq                    2.3      -0.3       1. 
 Bq                    2.3      -0.1       1. 
 Bq                    2.3       0.1       1. 
 Bq                    2.3       0.3       1. 
 Bq                    2.3       0.5       1. 
 Bq                    2.3       0.7       1. 
 Bq                    2.3       0.9       1. 
 Bq                    2.3       1.1       1. 
 Bq                    2.3       1.3       1. 
 Bq                    2.3       1.5       1. 
 Bq                    2.3       1.7       1. 
 Bq                    2.3       1.9       1. 
 Bq                    2.3       2.1       1. 
 Bq                    2.3       2.3       1. 
 Bq                    2.3       2.5       1. 
 Bq                    2.3       2.7       1. 
 Bq                    2.3       2.9       1. 
 Bq                    2.3       3.1       1. 
 Bq                    2.3       3.3       1. 
 Bq                    2.3       3.5       1. 
 Bq                    2.5      -3.5       1. 
 Bq                    2.5      -3.3       1. 
 Bq                    2.5      -3.1       1. 
 Bq                    2.5      -2.9       1. 
 Bq                    2.5      -2.7       1. 
 Bq                    2.5      -2.5       1. 
 Bq                    2.5      -2.3       1. 
 Bq                    2.5      -2.1       1. 
 Bq                    2.5      -1.9       1. 
 Bq                    2.5      -1.7       1. 
 Bq                    2.5      -1.5       1. 
 Bq                    2.5      -1.3       1. 
 Bq                    2.5      -1.1       1. 
 Bq                    2.5      -0.9       1. 
 Bq                    2.5      -0.7       1. 
 Bq                    2.5      -0.5       1. 
 Bq                    2.5      -0.3       1. 
 Bq                    2.5      -0.1       1. 
 Bq                    2.5       0.1       1. 
 Bq                    2.5       0.3       1. 
 Bq                    2.5       0.5       1. 
 Bq                    2.5       0.7       1. 
 Bq                    2.5       0.9       1. 
 Bq                    2.5       1.1       1. 
 Bq                    2.5       1.3       1. 
 Bq                    2.5       1.5       1. 
 Bq                    2.5       1.7       1. 
 Bq                    2.5       1.9       1. 
 Bq                    2.5       2.1       1. 
 Bq                    2.5       2.3       1. 
 Bq                    2.5       2.5       1. 
 Bq                    2.5       2.7       1. 
 Bq                    2.5       2.9       1. 
 Bq                    2.5       3.1       1. 
 Bq                    2.5       3.3       1. 
 Bq                    2.5       3.5       1. 
 Bq                    2.7      -3.5       1. 
 Bq                    2.7      -3.3       1. 
 Bq                    2.7      -3.1       1. 
 Bq                    2.7      -2.9       1. 
 Bq                    2.7      -2.7       1. 
 Bq                    2.7      -2.5       1. 
 Bq                    2.7      -2.3       1. 
 Bq                    2.7      -2.1       1. 
 Bq                    2.7      -1.9       1. 
 Bq                    2.7      -1.7       1. 
 Bq                    2.7      -1.5       1. 
 Bq                    2.7      -1.3       1. 
 Bq                    2.7      -1.1       1. 
 Bq                    2.7      -0.9       1. 
 Bq                    2.7      -0.7       1. 
 Bq                    2.7      -0.5       1. 
 Bq                    2.7      -0.3       1. 
 Bq                    2.7      -0.1       1. 
 Bq                    2.7       0.1       1. 
 Bq                    2.7       0.3       1. 
 Bq                    2.7       0.5       1. 
 Bq                    2.7       0.7       1. 
 Bq                    2.7       0.9       1. 
 Bq                    2.7       1.1       1. 
 Bq                    2.7       1.3       1. 
 Bq                    2.7       1.5       1. 
 Bq                    2.7       1.7       1. 
 Bq                    2.7       1.9       1. 
 Bq                    2.7       2.1       1. 
 Bq                    2.7       2.3       1. 
 Bq                    2.7       2.5       1. 
 Bq                    2.7       2.7       1. 
 Bq                    2.7       2.9       1. 
 Bq                    2.7       3.1       1. 
 Bq                    2.7       3.3       1. 
 Bq                    2.7       3.5       1. 
 Bq                    2.9      -3.5       1. 
 Bq                    2.9      -3.3       1. 
 Bq                    2.9      -3.1       1. 
 Bq                    2.9      -2.9       1. 
 Bq                    2.9      -2.7       1. 
 Bq                    2.9      -2.5       1. 
 Bq                    2.9      -2.3       1. 
 Bq                    2.9      -2.1       1. 
 Bq                    2.9      -1.9       1. 
 Bq                    2.9      -1.7       1. 
 Bq                    2.9      -1.5       1. 
 Bq                    2.9      -1.3       1. 
 Bq                    2.9      -1.1       1. 
 Bq                    2.9      -0.9       1. 
 Bq                    2.9      -0.7       1. 
 Bq                    2.9      -0.5       1. 
 Bq                    2.9      -0.3       1. 
 Bq                    2.9      -0.1       1. 
 Bq                    2.9       0.1       1. 
 Bq                    2.9       0.3       1. 
 Bq                    2.9       0.5       1. 
 Bq                    2.9       0.7       1. 
 Bq                    2.9       0.9       1. 
 Bq                    2.9       1.1       1. 
 Bq                    2.9       1.3       1. 
 Bq                    2.9       1.5       1. 
 Bq                    2.9       1.7       1. 
 Bq                    2.9       1.9       1. 
 Bq                    2.9       2.1       1. 
 Bq                    2.9       2.3       1. 
 Bq                    2.9       2.5       1. 
 Bq                    2.9       2.7       1. 
 Bq                    2.9       2.9       1. 
 Bq                    2.9       3.1       1. 
 Bq                    2.9       3.3       1. 
 Bq                    2.9       3.5       1. 
 Bq                    3.1      -3.5       1. 
 Bq                    3.1      -3.3       1. 
 Bq                    3.1      -3.1       1. 
 Bq                    3.1      -2.9       1. 
 Bq                    3.1      -2.7       1. 
 Bq                    3.1      -2.5       1. 
 Bq                    3.1      -2.3       1. 
 Bq                    3.1      -2.1       1. 
 Bq                    3.1      -1.9       1. 
 Bq                    3.1      -1.7       1. 
 Bq                    3.1      -1.5       1. 
 Bq                    3.1      -1.3       1. 
 Bq                    3.1      -1.1       1. 
 Bq                    3.1      -0.9       1. 
 Bq                    3.1      -0.7       1. 
 Bq                    3.1      -0.5       1. 
 Bq                    3.1      -0.3       1. 
 Bq                    3.1      -0.1       1. 
 Bq                    3.1       0.1       1. 
 Bq                    3.1       0.3       1. 
 Bq                    3.1       0.5       1. 
 Bq                    3.1       0.7       1. 
 Bq                    3.1       0.9       1. 
 Bq                    3.1       1.1       1. 
 Bq                    3.1       1.3       1. 
 Bq                    3.1       1.5       1. 
 Bq                    3.1       1.7       1. 
 Bq                    3.1       1.9       1. 
 Bq                    3.1       2.1       1. 
 Bq                    3.1       2.3       1. 
 Bq                    3.1       2.5       1. 
 Bq                    3.1       2.7       1. 
 Bq                    3.1       2.9       1. 
 Bq                    3.1       3.1       1. 
 Bq                    3.1       3.3       1. 
 Bq                    3.1       3.5       1. 
 Bq                    3.3      -3.5       1. 
 Bq                    3.3      -3.3       1. 
 Bq                    3.3      -3.1       1. 
 Bq                    3.3      -2.9       1. 
 Bq                    3.3      -2.7       1. 
 Bq                    3.3      -2.5       1. 
 Bq                    3.3      -2.3       1. 
 Bq                    3.3      -2.1       1. 
 Bq                    3.3      -1.9       1. 
 Bq                    3.3      -1.7       1. 
 Bq                    3.3      -1.5       1. 
 Bq                    3.3      -1.3       1. 
 Bq                    3.3      -1.1       1. 
 Bq                    3.3      -0.9       1. 
 Bq                    3.3      -0.7       1. 
 Bq                    3.3      -0.5       1. 
 Bq                    3.3      -0.3       1. 
 Bq                    3.3      -0.1       1. 
 Bq                    3.3       0.1       1. 
 Bq                    3.3       0.3       1. 
 Bq                    3.3       0.5       1. 
 Bq                    3.3       0.7       1. 
 Bq                    3.3       0.9       1. 
 Bq                    3.3       1.1       1. 
 Bq                    3.3       1.3       1. 
 Bq                    3.3       1.5       1. 
 Bq                    3.3       1.7       1. 
 Bq                    3.3       1.9       1. 
 Bq                    3.3       2.1       1. 
 Bq                    3.3       2.3       1. 
 Bq                    3.3       2.5       1. 
 Bq                    3.3       2.7       1. 
 Bq                    3.3       2.9       1. 
 Bq                    3.3       3.1       1. 
 Bq                    3.3       3.3       1. 
 Bq                    3.3       3.5       1. 
 Bq                    3.5      -3.5       1. 
 Bq                    3.5      -3.3       1. 
 Bq                    3.5      -3.1       1. 
 Bq                    3.5      -2.9       1. 
 Bq                    3.5      -2.7       1. 
 Bq                    3.5      -2.5       1. 
 Bq                    3.5      -2.3       1. 
 Bq                    3.5      -2.1       1. 
 Bq                    3.5      -1.9       1. 
 Bq                    3.5      -1.7       1. 
 Bq                    3.5      -1.5       1. 
 Bq                    3.5      -1.3       1. 
 Bq                    3.5      -1.1       1. 
 Bq                    3.5      -0.9       1. 
 Bq                    3.5      -0.7       1. 
 Bq                    3.5      -0.5       1. 
 Bq                    3.5      -0.3       1. 
 Bq                    3.5      -0.1       1. 
 Bq                    3.5       0.1       1. 
 Bq                    3.5       0.3       1. 
 Bq                    3.5       0.5       1. 
 Bq                    3.5       0.7       1. 
 Bq                    3.5       0.9       1. 
 Bq                    3.5       1.1       1. 
 Bq                    3.5       1.3       1. 
 Bq                    3.5       1.5       1. 
 Bq                    3.5       1.7       1. 
 Bq                    3.5       1.9       1. 
 Bq                    3.5       2.1       1. 
 Bq                    3.5       2.3       1. 
 Bq                    3.5       2.5       1. 
 Bq                    3.5       2.7       1. 
 Bq                    3.5       2.9       1. 
 Bq                    3.5       3.1       1. 
 Bq                    3.5       3.3       1. 
 Bq                    3.5       3.5       1. 
 
 ITRead=  0  0  0  0  0  0  0  0  0  0  0  0  0  0  0  0  0  0  0  0
 ITRead=  0  0  0  0  0  0  0  0  0  0  0  0  0  0  0  0  0  0  0  0
 ITRead=  0  0  0  0  0  0  0  0  0  0  0  0  0  0  0  0  0  0  0  0
 ITRead=  0  0  0  0  0  0  0  0  0  0  0  0  0  0  0  0  0  0  0  0
 ITRead=  0  0  0  0  0  0  0  0  0  0  0  0  0  0  0  0  0  0  0  0
 ITRead=  0  0  0  0  0  0  0  0  0  0  0  0  0  0  0  0  0  0  0  0
 ITRead=  0  0  0  0  0  0  0  0  0  0  0  0  0  0  0  0  0  0  0  0
 ITRead=  0  0  0  0  0  0  0  0  0  0  0  0  0  0  0  0  0  0  0  0
 ITRead=  0  0  0  0  0  0  0  0  0  0  0  0  0  0  0  0  0  0  0  0
 ITRead=  0  0  0  0  0  0  0  0  0  0  0  0  0  0  0  0  0  0  0  0
 ITRead=  0  0  0  0  0  0  0  0  0  0  0  0  0  0  0  0  0  0  0  0
 ITRead=  0  0  0  0  0  0  0  0  0  0  0  0  0  0  0  0  0  0  0  0
 ITRead=  0  0  0  0  0  0  0  0  0  0  0  0  0  0  0  0  0  0  0  0
 ITRead=  0  0  0  0  0  0  0  0  0  0  0  0  0  0  0  0  0  0  0  0
 ITRead=  0  0  0  0  0  0  0  0  0  0  0  0  0  0  0  0  0  0  0  0
 ITRead=  0  0  0  0  0  0  0  0  0  0  0  0  0  0  0  0  0  0  0  0
 ITRead=  0  0  0  0  0  0  0  0  0  0  0  0  0  0  0  0  0  0  0  0
 ITRead=  0  0  0  0  0  0  0  0  0  0  0  0  0  0  0  0  0  0  0  0
 ITRead=  0  0  0  0  0  0  0  0  0  0  0  0  0  0  0  0  0  0  0  0
 ITRead=  0  0  0  0  0  0  0  0  0  0  0  0  0  0  0  0  0  0  0  0
 ITRead=  0  0  0  0  0  0  0  0  0  0  0  0  0  0  0  0  0  0  0  0
 ITRead=  0  0  0  0  0  0  0  0  0  0  0  0  0  0  0  0  0  0  0  0
 ITRead=  0  0  0  0  0  0  0  0  0  0  0  0  0  0  0  0  0  0  0  0
 ITRead=  0  0  0  0  0  0  0  0  0  0  0  0  0  0  0  0  0  0  0  0
 ITRead=  0  0  0  0  0  0  0  0  0  0  0  0  0  0  0  0  0  0  0  0
 ITRead=  0  0  0  0  0  0  0  0  0  0  0  0  0  0  0  0  0  0  0  0
 ITRead=  0  0  0  0  0  0  0  0  0  0  0  0  0  0  0  0  0  0  0  0
 ITRead=  0  0  0  0  0  0  0  0  0  0  0  0  0  0  0  0  0  0  0  0
 ITRead=  0  0  0  0  0  0  0  0  0  0  0  0  0  0  0  0  0  0  0  0
 ITRead=  0  0  0  0  0  0  0  0  0  0  0  0  0  0  0  0  0  0  0  0
 ITRead=  0  0  0  0  0  0  0  0  0  0  0  0  0  0  0  0  0  0  0  0
 ITRead=  0  0  0  0  0  0  0  0  0  0  0  0  0  0  0  0  0  0  0  0
 ITRead=  0  0  0  0  0  0  0  0  0  0  0  0  0  0  0  0  0  0  0  0
 ITRead=  0  0  0  0  0  0  0  0  0  0  0  0  0  0  0  0  0  0  0  0
 ITRead=  0  0  0  0  0  0  0  0  0  0  0  0  0  0  0  0  0  0  0  0
 ITRead=  0  0  0  0  0  0  0  0  0  0  0  0  0  0  0  0  0  0  0  0
 ITRead=  0  0  0  0  0  0  0  0  0  0  0  0  0  0  0  0  0  0  0  0
 ITRead=  0  0  0  0  0  0  0  0  0  0  0  0  0  0  0  0  0  0  0  0
 ITRead=  0  0  0  0  0  0  0  0  0  0  0  0  0  0  0  0  0  0  0  0
 ITRead=  0  0  0  0  0  0  0  0  0  0  0  0  0  0  0  0  0  0  0  0
 ITRead=  0  0  0  0  0  0  0  0  0  0  0  0  0  0  0  0  0  0  0  0
 ITRead=  0  0  0  0  0  0  0  0  0  0  0  0  0  0  0  0  0  0  0  0
 ITRead=  0  0  0  0  0  0  0  0  0  0  0  0  0  0  0  0  0  0  0  0
 ITRead=  0  0  0  0  0  0  0  0  0  0  0  0  0  0  0  0  0  0  0  0
 ITRead=  0  0  0  0  0  0  0  0  0  0  0  0  0  0  0  0  0  0  0  0
 ITRead=  0  0  0  0  0  0  0  0  0  0  0  0  0  0  0  0  0  0  0  0
 ITRead=  0  0  0  0  0  0  0  0  0  0  0  0  0  0  0  0  0  0  0  0
 ITRead=  0  0  0  0  0  0  0  0  0  0  0  0  0  0  0  0  0  0  0  0
 ITRead=  0  0  0  0  0  0  0  0  0  0  0  0  0  0  0  0  0  0  0  0
 ITRead=  0  0  0  0  0  0  0  0  0  0  0  0  0  0  0  0  0  0  0  0
 ITRead=  0  0  0  0  0  0  0  0  0  0  0  0  0  0  0  0  0  0  0  0
 ITRead=  0  0  0  0  0  0  0  0  0  0  0  0  0  0  0  0  0  0  0  0
 ITRead=  0  0  0  0  0  0  0  0  0  0  0  0  0  0  0  0  0  0  0  0
 ITRead=  0  0  0  0  0  0  0  0  0  0  0  0  0  0  0  0  0  0  0  0
 ITRead=  0  0  0  0  0  0  0  0  0  0  0  0  0  0  0  0  0  0  0  0
 ITRead=  0  0  0  0  0  0  0  0  0  0  0  0  0  0  0  0  0  0  0  0
 ITRead=  0  0  0  0  0  0  0  0  0  0  0  0  0  0  0  0  0  0  0  0
 ITRead=  0  0  0  0  0  0  0  0  0  0  0  0  0  0  0  0  0  0  0  0
 ITRead=  0  0  0  0  0  0  0  0  0  0  0  0  0  0  0  0  0  0  0  0
 ITRead=  0  0  0  0  0  0  0  0  0  0  0  0  0  0  0  0  0  0  0  0
 ITRead=  0  0  0  0  0  0  0  0  0  0  0  0  0  0  0  0  0  0  0  0
 ITRead=  0  0  0  0  0  0  0  0  0  0  0  0  0  0  0  0  0  0  0  0
 ITRead=  0  0  0  0  0  0  0  0  0  0  0  0  0  0  0  0  0  0  0  0
 ITRead=  0  0  0  0  0  0  0  0  0  0  0  0  0  0  0  0  0  0  0  0
 ITRead=  0  0  0  0  0  0  0  0  0  0  0  0  0  0  0  0  0  0  0  0
 ITRead=  0  0  0  0  0  0  0  0
 MicOpt= -1 -1 -1 -1 -1 -1 -1 -1 -1 -1 -1 -1 -1 -1 -1 -1 -1 -1 -1 -1
 MicOpt= -1 -1 -1 -1 -1 -1 -1 -1 -1 -1 -1 -1 -1 -1 -1 -1 -1 -1 -1 -1
 MicOpt= -1 -1 -1 -1 -1 -1 -1 -1 -1 -1 -1 -1 -1 -1 -1 -1 -1 -1 -1 -1
 MicOpt= -1 -1 -1 -1 -1 -1 -1 -1 -1 -1 -1 -1 -1 -1 -1 -1 -1 -1 -1 -1
 MicOpt= -1 -1 -1 -1 -1 -1 -1 -1 -1 -1 -1 -1 -1 -1 -1 -1 -1 -1 -1 -1
 MicOpt= -1 -1 -1 -1 -1 -1 -1 -1 -1 -1 -1 -1 -1 -1 -1 -1 -1 -1 -1 -1
 MicOpt= -1 -1 -1 -1 -1 -1 -1 -1 -1 -1 -1 -1 -1 -1 -1 -1 -1 -1 -1 -1
 MicOpt= -1 -1 -1 -1 -1 -1 -1 -1 -1 -1 -1 -1 -1 -1 -1 -1 -1 -1 -1 -1
 MicOpt= -1 -1 -1 -1 -1 -1 -1 -1 -1 -1 -1 -1 -1 -1 -1 -1 -1 -1 -1 -1
 MicOpt= -1 -1 -1 -1 -1 -1 -1 -1 -1 -1 -1 -1 -1 -1 -1 -1 -1 -1 -1 -1
 MicOpt= -1 -1 -1 -1 -1 -1 -1 -1 -1 -1 -1 -1 -1 -1 -1 -1 -1 -1 -1 -1
 MicOpt= -1 -1 -1 -1 -1 -1 -1 -1 -1 -1 -1 -1 -1 -1 -1 -1 -1 -1 -1 -1
 MicOpt= -1 -1 -1 -1 -1 -1 -1 -1 -1 -1 -1 -1 -1 -1 -1 -1 -1 -1 -1 -1
 MicOpt= -1 -1 -1 -1 -1 -1 -1 -1 -1 -1 -1 -1 -1 -1 -1 -1 -1 -1 -1 -1
 MicOpt= -1 -1 -1 -1 -1 -1 -1 -1 -1 -1 -1 -1 -1 -1 -1 -1 -1 -1 -1 -1
 MicOpt= -1 -1 -1 -1 -1 -1 -1 -1 -1 -1 -1 -1 -1 -1 -1 -1 -1 -1 -1 -1
 MicOpt= -1 -1 -1 -1 -1 -1 -1 -1 -1 -1 -1 -1 -1 -1 -1 -1 -1 -1 -1 -1
 MicOpt= -1 -1 -1 -1 -1 -1 -1 -1 -1 -1 -1 -1 -1 -1 -1 -1 -1 -1 -1 -1
 MicOpt= -1 -1 -1 -1 -1 -1 -1 -1 -1 -1 -1 -1 -1 -1 -1 -1 -1 -1 -1 -1
 MicOpt= -1 -1 -1 -1 -1 -1 -1 -1 -1 -1 -1 -1 -1 -1 -1 -1 -1 -1 -1 -1
 MicOpt= -1 -1 -1 -1 -1 -1 -1 -1 -1 -1 -1 -1 -1 -1 -1 -1 -1 -1 -1 -1
 MicOpt= -1 -1 -1 -1 -1 -1 -1 -1 -1 -1 -1 -1 -1 -1 -1 -1 -1 -1 -1 -1
 MicOpt= -1 -1 -1 -1 -1 -1 -1 -1 -1 -1 -1 -1 -1 -1 -1 -1 -1 -1 -1 -1
 MicOpt= -1 -1 -1 -1 -1 -1 -1 -1 -1 -1 -1 -1 -1 -1 -1 -1 -1 -1 -1 -1
 MicOpt= -1 -1 -1 -1 -1 -1 -1 -1 -1 -1 -1 -1 -1 -1 -1 -1 -1 -1 -1 -1
 MicOpt= -1 -1 -1 -1 -1 -1 -1 -1 -1 -1 -1 -1 -1 -1 -1 -1 -1 -1 -1 -1
 MicOpt= -1 -1 -1 -1 -1 -1 -1 -1 -1 -1 -1 -1 -1 -1 -1 -1 -1 -1 -1 -1
 MicOpt= -1 -1 -1 -1 -1 -1 -1 -1 -1 -1 -1 -1 -1 -1 -1 -1 -1 -1 -1 -1
 MicOpt= -1 -1 -1 -1 -1 -1 -1 -1 -1 -1 -1 -1 -1 -1 -1 -1 -1 -1 -1 -1
 MicOpt= -1 -1 -1 -1 -1 -1 -1 -1 -1 -1 -1 -1 -1 -1 -1 -1 -1 -1 -1 -1
 MicOpt= -1 -1 -1 -1 -1 -1 -1 -1 -1 -1 -1 -1 -1 -1 -1 -1 -1 -1 -1 -1
 MicOpt= -1 -1 -1 -1 -1 -1 -1 -1 -1 -1 -1 -1 -1 -1 -1 -1 -1 -1 -1 -1
 MicOpt= -1 -1 -1 -1 -1 -1 -1 -1 -1 -1 -1 -1 -1 -1 -1 -1 -1 -1 -1 -1
 MicOpt= -1 -1 -1 -1 -1 -1 -1 -1 -1 -1 -1 -1 -1 -1 -1 -1 -1 -1 -1 -1
 MicOpt= -1 -1 -1 -1 -1 -1 -1 -1 -1 -1 -1 -1 -1 -1 -1 -1 -1 -1 -1 -1
 MicOpt= -1 -1 -1 -1 -1 -1 -1 -1 -1 -1 -1 -1 -1 -1 -1 -1 -1 -1 -1 -1
 MicOpt= -1 -1 -1 -1 -1 -1 -1 -1 -1 -1 -1 -1 -1 -1 -1 -1 -1 -1 -1 -1
 MicOpt= -1 -1 -1 -1 -1 -1 -1 -1 -1 -1 -1 -1 -1 -1 -1 -1 -1 -1 -1 -1
 MicOpt= -1 -1 -1 -1 -1 -1 -1 -1 -1 -1 -1 -1 -1 -1 -1 -1 -1 -1 -1 -1
 MicOpt= -1 -1 -1 -1 -1 -1 -1 -1 -1 -1 -1 -1 -1 -1 -1 -1 -1 -1 -1 -1
 MicOpt= -1 -1 -1 -1 -1 -1 -1 -1 -1 -1 -1 -1 -1 -1 -1 -1 -1 -1 -1 -1
 MicOpt= -1 -1 -1 -1 -1 -1 -1 -1 -1 -1 -1 -1 -1 -1 -1 -1 -1 -1 -1 -1
 MicOpt= -1 -1 -1 -1 -1 -1 -1 -1 -1 -1 -1 -1 -1 -1 -1 -1 -1 -1 -1 -1
 MicOpt= -1 -1 -1 -1 -1 -1 -1 -1 -1 -1 -1 -1 -1 -1 -1 -1 -1 -1 -1 -1
 MicOpt= -1 -1 -1 -1 -1 -1 -1 -1 -1 -1 -1 -1 -1 -1 -1 -1 -1 -1 -1 -1
 MicOpt= -1 -1 -1 -1 -1 -1 -1 -1 -1 -1 -1 -1 -1 -1 -1 -1 -1 -1 -1 -1
 MicOpt= -1 -1 -1 -1 -1 -1 -1 -1 -1 -1 -1 -1 -1 -1 -1 -1 -1 -1 -1 -1
 MicOpt= -1 -1 -1 -1 -1 -1 -1 -1 -1 -1 -1 -1 -1 -1 -1 -1 -1 -1 -1 -1
 MicOpt= -1 -1 -1 -1 -1 -1 -1 -1 -1 -1 -1 -1 -1 -1 -1 -1 -1 -1 -1 -1
 MicOpt= -1 -1 -1 -1 -1 -1 -1 -1 -1 -1 -1 -1 -1 -1 -1 -1 -1 -1 -1 -1
 MicOpt= -1 -1 -1 -1 -1 -1 -1 -1 -1 -1 -1 -1 -1 -1 -1 -1 -1 -1 -1 -1
 MicOpt= -1 -1 -1 -1 -1 -1 -1 -1 -1 -1 -1 -1 -1 -1 -1 -1 -1 -1 -1 -1
 MicOpt= -1 -1 -1 -1 -1 -1 -1 -1 -1 -1 -1 -1 -1 -1 -1 -1 -1 -1 -1 -1
 MicOpt= -1 -1 -1 -1 -1 -1 -1 -1 -1 -1 -1 -1 -1 -1 -1 -1 -1 -1 -1 -1
 MicOpt= -1 -1 -1 -1 -1 -1 -1 -1 -1 -1 -1 -1 -1 -1 -1 -1 -1 -1 -1 -1
 MicOpt= -1 -1 -1 -1 -1 -1 -1 -1 -1 -1 -1 -1 -1 -1 -1 -1 -1 -1 -1 -1
 MicOpt= -1 -1 -1 -1 -1 -1 -1 -1 -1 -1 -1 -1 -1 -1 -1 -1 -1 -1 -1 -1
 MicOpt= -1 -1 -1 -1 -1 -1 -1 -1 -1 -1 -1 -1 -1 -1 -1 -1 -1 -1 -1 -1
 MicOpt= -1 -1 -1 -1 -1 -1 -1 -1 -1 -1 -1 -1 -1 -1 -1 -1 -1 -1 -1 -1
 MicOpt= -1 -1 -1 -1 -1 -1 -1 -1 -1 -1 -1 -1 -1 -1 -1 -1 -1 -1 -1 -1
 MicOpt= -1 -1 -1 -1 -1 -1 -1 -1 -1 -1 -1 -1 -1 -1 -1 -1 -1 -1 -1 -1
 MicOpt= -1 -1 -1 -1 -1 -1 -1 -1 -1 -1 -1 -1 -1 -1 -1 -1 -1 -1 -1 -1
 MicOpt= -1 -1 -1 -1 -1 -1 -1 -1 -1 -1 -1 -1 -1 -1 -1 -1 -1 -1 -1 -1
 MicOpt= -1 -1 -1 -1 -1 -1 -1 -1 -1 -1 -1 -1 -1 -1 -1 -1 -1 -1 -1 -1
 MicOpt= -1 -1 -1 -1 -1 -1 -1 -1 -1 -1 -1 -1 -1 -1 -1 -1 -1 -1 -1 -1
 MicOpt= -1 -1 -1 -1 -1 -1 -1 -1
 NAtoms=   1308 NQM=     1308 NQMF=       0 NMMI=      0 NMMIF=      0
                NMic=       0 NMicF=      0.
                    Isotopes and Nuclear Properties:
 (Nuclear quadrupole moments (NQMom) in fm**2, nuclear magnetic moments (NMagM)
  in nuclear magnetons)

  Atom         1           2           3           4           5           6           7           8           9          10
 IAtWgt=          12          12          12          12          12          12           1           1           1           1
 AtmWgt=  12.0000000  12.0000000  12.0000000  12.0000000  12.0000000  12.0000000   1.0078250   1.0078250   1.0078250   1.0078250
 NucSpn=           0           0           0           0           0           0           1           1           1           1
 AtZEff=  -0.0000000  -0.0000000  -0.0000000  -0.0000000  -0.0000000  -0.0000000  -0.0000000  -0.0000000  -0.0000000  -0.0000000
 NQMom=    0.0000000   0.0000000   0.0000000   0.0000000   0.0000000   0.0000000   0.0000000   0.0000000   0.0000000   0.0000000
 NMagM=    0.0000000   0.0000000   0.0000000   0.0000000   0.0000000   0.0000000   2.7928460   2.7928460   2.7928460   2.7928460
 AtZNuc=   6.0000000   6.0000000   6.0000000   6.0000000   6.0000000   6.0000000   1.0000000   1.0000000   1.0000000   1.0000000

  Atom        11          12          13          14          15          16          17          18          19          20
 IAtWgt=           1           1           0           0           0           0           0           0           0           0
 AtmWgt=   1.0078250   1.0078250   0.0000000   0.0000000   0.0000000   0.0000000   0.0000000   0.0000000   0.0000000   0.0000000
 NucSpn=           1           1           0           0           0           0           0           0           0           0
 AtZEff=  -0.0000000  -0.0000000  -0.0000000  -0.0000000  -0.0000000  -0.0000000  -0.0000000  -0.0000000  -0.0000000  -0.0000000
 NQMom=    0.0000000   0.0000000   0.0000000   0.0000000   0.0000000   0.0000000   0.0000000   0.0000000   0.0000000   0.0000000
 NMagM=    2.7928460   2.7928460   0.0000000   0.0000000   0.0000000   0.0000000   0.0000000   0.0000000   0.0000000   0.0000000
 AtZNuc=   1.0000000   1.0000000   0.0000000   0.0000000   0.0000000   0.0000000   0.0000000   0.0000000   0.0000000   0.0000000

  Atom        21          22          23          24          25          26          27          28          29          30
 IAtWgt=           0           0           0           0           0           0           0           0           0           0
 AtmWgt=   0.0000000   0.0000000   0.0000000   0.0000000   0.0000000   0.0000000   0.0000000   0.0000000   0.0000000   0.0000000
 NucSpn=           0           0           0           0           0           0           0           0           0           0
 AtZEff=  -0.0000000  -0.0000000  -0.0000000  -0.0000000  -0.0000000  -0.0000000  -0.0000000  -0.0000000  -0.0000000  -0.0000000
 NQMom=    0.0000000   0.0000000   0.0000000   0.0000000   0.0000000   0.0000000   0.0000000   0.0000000   0.0000000   0.0000000
 NMagM=    0.0000000   0.0000000   0.0000000   0.0000000   0.0000000   0.0000000   0.0000000   0.0000000   0.0000000   0.0000000
 AtZNuc=   0.0000000   0.0000000   0.0000000   0.0000000   0.0000000   0.0000000   0.0000000   0.0000000   0.0000000   0.0000000

  Atom        31          32          33          34          35          36          37          38          39          40
 IAtWgt=           0           0           0           0           0           0           0           0           0           0
 AtmWgt=   0.0000000   0.0000000   0.0000000   0.0000000   0.0000000   0.0000000   0.0000000   0.0000000   0.0000000   0.0000000
 NucSpn=           0           0           0           0           0           0           0           0           0           0
 AtZEff=  -0.0000000  -0.0000000  -0.0000000  -0.0000000  -0.0000000  -0.0000000  -0.0000000  -0.0000000  -0.0000000  -0.0000000
 NQMom=    0.0000000   0.0000000   0.0000000   0.0000000   0.0000000   0.0000000   0.0000000   0.0000000   0.0000000   0.0000000
 NMagM=    0.0000000   0.0000000   0.0000000   0.0000000   0.0000000   0.0000000   0.0000000   0.0000000   0.0000000   0.0000000
 AtZNuc=   0.0000000   0.0000000   0.0000000   0.0000000   0.0000000   0.0000000   0.0000000   0.0000000   0.0000000   0.0000000

  Atom        41          42          43          44          45          46          47          48          49          50
 IAtWgt=           0           0           0           0           0           0           0           0           0           0
 AtmWgt=   0.0000000   0.0000000   0.0000000   0.0000000   0.0000000   0.0000000   0.0000000   0.0000000   0.0000000   0.0000000
 NucSpn=           0           0           0           0           0           0           0           0           0           0
[...]
 1.5,1.\Bq,0,-2.5,-1.3,1.\Bq,0,-2.5,-1.1,1.\Bq,0,-2.5,-0.9,1.\Bq,0,-2.5
 ,-0.7,1.\Bq,0,-2.5,-0.5,1.\Bq,0,-2.5,-0.3,1.\Bq,0,-2.5,-0.1,1.\Bq,0,-2
 .5,0.1,1.\Bq,0,-2.5,0.3,1.\Bq,0,-2.5,0.5,1.\Bq,0,-2.5,0.7,1.\Bq,0,-2.5
 ,0.9,1.\Bq,0,-2.5,1.1,1.\Bq,0,-2.5,1.3,1.\Bq,0,-2.5,1.5,1.\Bq,0,-2.5,1
 .7,1.\Bq,0,-2.5,1.9,1.\Bq,0,-2.5,2.1,1.\Bq,0,-2.5,2.3,1.\Bq,0,-2.5,2.5
 ,1.\Bq,0,-2.5,2.7,1.\Bq,0,-2.5,2.9,1.\Bq,0,-2.5,3.1,1.\Bq,0,-2.5,3.3,1
 .\Bq,0,-2.5,3.5,1.\Bq,0,-2.3,-3.5,1.\Bq,0,-2.3,-3.3,1.\Bq,0,-2.3,-3.1,
 1.\Bq,0,-2.3,-2.9,1.\Bq,0,-2.3,-2.7,1.\Bq,0,-2.3,-2.5,1.\Bq,0,-2.3,-2.
 3,1.\Bq,0,-2.3,-2.1,1.\Bq,0,-2.3,-1.9,1.\Bq,0,-2.3,-1.7,1.\Bq,0,-2.3,-
 1.5,1.\Bq,0,-2.3,-1.3,1.\Bq,0,-2.3,-1.1,1.\Bq,0,-2.3,-0.9,1.\Bq,0,-2.3
 ,-0.7,1.\Bq,0,-2.3,-0.5,1.\Bq,0,-2.3,-0.3,1.\Bq,0,-2.3,-0.1,1.\Bq,0,-2
 .3,0.1,1.\Bq,0,-2.3,0.3,1.\Bq,0,-2.3,0.5,1.\Bq,0,-2.3,0.7,1.\Bq,0,-2.3
 ,0.9,1.\Bq,0,-2.3,1.1,1.\Bq,0,-2.3,1.3,1.\Bq,0,-2.3,1.5,1.\Bq,0,-2.3,1
 .7,1.\Bq,0,-2.3,1.9,1.\Bq,0,-2.3,2.1,1.\Bq,0,-2.3,2.3,1.\Bq,0,-2.3,2.5
 ,1.\Bq,0,-2.3,2.7,1.\Bq,0,-2.3,2.9,1.\Bq,0,-2.3,3.1,1.\Bq,0,-2.3,3.3,1
 .\Bq,0,-2.3,3.5,1.\Bq,0,-2.1,-3.5,1.\Bq,0,-2.1,-3.3,1.\Bq,0,-2.1,-3.1,
 1.\Bq,0,-2.1,-2.9,1.\Bq,0,-2.1,-2.7,1.\Bq,0,-2.1,-2.5,1.\Bq,0,-2.1,-2.
 3,1.\Bq,0,-2.1,-2.1,1.\Bq,0,-2.1,-1.9,1.\Bq,0,-2.1,-1.7,1.\Bq,0,-2.1,-
 1.5,1.\Bq,0,-2.1,-1.3,1.\Bq,0,-2.1,-1.1,1.\Bq,0,-2.1,-0.9,1.\Bq,0,-2.1
 ,-0.7,1.\Bq,0,-2.1,-0.5,1.\Bq,0,-2.1,-0.3,1.\Bq,0,-2.1,-0.1,1.\Bq,0,-2
 .1,0.1,1.\Bq,0,-2.1,0.3,1.\Bq,0,-2.1,0.5,1.\Bq,0,-2.1,0.7,1.\Bq,0,-2.1
 ,0.9,1.\Bq,0,-2.1,1.1,1.\Bq,0,-2.1,1.3,1.\Bq,0,-2.1,1.5,1.\Bq,0,-2.1,1
 .7,1.\Bq,0,-2.1,1.9,1.\Bq,0,-2.1,2.1,1.\Bq,0,-2.1,2.3,1.\Bq,0,-2.1,2.5
 ,1.\Bq,0,-2.1,2.7,1.\Bq,0,-2.1,2.9,1.\Bq,0,-2.1,3.1,1.\Bq,0,-2.1,3.3,1
 .\Bq,0,-2.1,3.5,1.\Bq,0,-1.9,-3.5,1.\Bq,0,-1.9,-3.3,1.\Bq,0,-1.9,-3.1,
 1.\Bq,0,-1.9,-2.9,1.\Bq,0,-1.9,-2.7,1.\Bq,0,-1.9,-2.5,1.\Bq,0,-1.9,-2.
 3,1.\Bq,0,-1.9,-2.1,1.\Bq,0,-1.9,-1.9,1.\Bq,0,-1.9,-1.7,1.\Bq,0,-1.9,-
 1.5,1.\Bq,0,-1.9,-1.3,1.\Bq,0,-1.9,-1.1,1.\Bq,0,-1.9,-0.9,1.\Bq,0,-1.9
 ,-0.7,1.\Bq,0,-1.9,-0.5,1.\Bq,0,-1.9,-0.3,1.\Bq,0,-1.9,-0.1,1.\Bq,0,-1
 .9,0.1,1.\Bq,0,-1.9,0.3,1.\Bq,0,-1.9,0.5,1.\Bq,0,-1.9,0.7,1.\Bq,0,-1.9
 ,0.9,1.\Bq,0,-1.9,1.1,1.\Bq,0,-1.9,1.3,1.\Bq,0,-1.9,1.5,1.\Bq,0,-1.9,1
 .7,1.\Bq,0,-1.9,1.9,1.\Bq,0,-1.9,2.1,1.\Bq,0,-1.9,2.3,1.\Bq,0,-1.9,2.5
 ,1.\Bq,0,-1.9,2.7,1.\Bq,0,-1.9,2.9,1.\Bq,0,-1.9,3.1,1.\Bq,0,-1.9,3.3,1
 .\Bq,0,-1.9,3.5,1.\Bq,0,-1.7,-3.5,1.\Bq,0,-1.7,-3.3,1.\Bq,0,-1.7,-3.1,
 1.\Bq,0,-1.7,-2.9,1.\Bq,0,-1.7,-2.7,1.\Bq,0,-1.7,-2.5,1.\Bq,0,-1.7,-2.
 3,1.\Bq,0,-1.7,-2.1,1.\Bq,0,-1.7,-1.9,1.\Bq,0,-1.7,-1.7,1.\Bq,0,-1.7,-
 1.5,1.\Bq,0,-1.7,-1.3,1.\Bq,0,-1.7,-1.1,1.\Bq,0,-1.7,-0.9,1.\Bq,0,-1.7
 ,-0.7,1.\Bq,0,-1.7,-0.5,1.\Bq,0,-1.7,-0.3,1.\Bq,0,-1.7,-0.1,1.\Bq,0,-1
 .7,0.1,1.\Bq,0,-1.7,0.3,1.\Bq,0,-1.7,0.5,1.\Bq,0,-1.7,0.7,1.\Bq,0,-1.7
 ,0.9,1.\Bq,0,-1.7,1.1,1.\Bq,0,-1.7,1.3,1.\Bq,0,-1.7,1.5,1.\Bq,0,-1.7,1
 .7,1.\Bq,0,-1.7,1.9,1.\Bq,0,-1.7,2.1,1.\Bq,0,-1.7,2.3,1.\Bq,0,-1.7,2.5
 ,1.\Bq,0,-1.7,2.7,1.\Bq,0,-1.7,2.9,1.\Bq,0,-1.7,3.1,1.\Bq,0,-1.7,3.3,1
 .\Bq,0,-1.7,3.5,1.\Bq,0,-1.5,-3.5,1.\Bq,0,-1.5,-3.3,1.\Bq,0,-1.5,-3.1,
 1.\Bq,0,-1.5,-2.9,1.\Bq,0,-1.5,-2.7,1.\Bq,0,-1.5,-2.5,1.\Bq,0,-1.5,-2.
 3,1.\Bq,0,-1.5,-2.1,1.\Bq,0,-1.5,-1.9,1.\Bq,0,-1.5,-1.7,1.\Bq,0,-1.5,-
 1.5,1.\Bq,0,-1.5,-1.3,1.\Bq,0,-1.5,-1.1,1.\Bq,0,-1.5,-0.9,1.\Bq,0,-1.5
 ,-0.7,1.\Bq,0,-1.5,-0.5,1.\Bq,0,-1.5,-0.3,1.\Bq,0,-1.5,-0.1,1.\Bq,0,-1
 .5,0.1,1.\Bq,0,-1.5,0.3,1.\Bq,0,-1.5,0.5,1.\Bq,0,-1.5,0.7,1.\Bq,0,-1.5
 ,0.9,1.\Bq,0,-1.5,1.1,1.\Bq,0,-1.5,1.3,1.\Bq,0,-1.5,1.5,1.\Bq,0,-1.5,1
 .7,1.\Bq,0,-1.5,1.9,1.\Bq,0,-1.5,2.1,1.\Bq,0,-1.5,2.3,1.\Bq,0,-1.5,2.5
 ,1.\Bq,0,-1.5,2.7,1.\Bq,0,-1.5,2.9,1.\Bq,0,-1.5,3.1,1.\Bq,0,-1.5,3.3,1
 .\Bq,0,-1.5,3.5,1.\Bq,0,-1.3,-3.5,1.\Bq,0,-1.3,-3.3,1.\Bq,0,-1.3,-3.1,
 1.\Bq,0,-1.3,-2.9,1.\Bq,0,-1.3,-2.7,1.\Bq,0,-1.3,-2.5,1.\Bq,0,-1.3,-2.
 3,1.\Bq,0,-1.3,-2.1,1.\Bq,0,-1.3,-1.9,1.\Bq,0,-1.3,-1.7,1.\Bq,0,-1.3,-
 1.5,1.\Bq,0,-1.3,-1.3,1.\Bq,0,-1.3,-1.1,1.\Bq,0,-1.3,-0.9,1.\Bq,0,-1.3
 ,-0.7,1.\Bq,0,-1.3,-0.5,1.\Bq,0,-1.3,-0.3,1.\Bq,0,-1.3,-0.1,1.\Bq,0,-1
 .3,0.1,1.\Bq,0,-1.3,0.3,1.\Bq,0,-1.3,0.5,1.\Bq,0,-1.3,0.7,1.\Bq,0,-1.3
 ,0.9,1.\Bq,0,-1.3,1.1,1.\Bq,0,-1.3,1.3,1.\Bq,0,-1.3,1.5,1.\Bq,0,-1.3,1
 .7,1.\Bq,0,-1.3,1.9,1.\Bq,0,-1.3,2.1,1.\Bq,0,-1.3,2.3,1.\Bq,0,-1.3,2.5
 ,1.\Bq,0,-1.3,2.7,1.\Bq,0,-1.3,2.9,1.\Bq,0,-1.3,3.1,1.\Bq,0,-1.3,3.3,1
 .\Bq,0,-1.3,3.5,1.\Bq,0,-1.1,-3.5,1.\Bq,0,-1.1,-3.3,1.\Bq,0,-1.1,-3.1,
 1.\Bq,0,-1.1,-2.9,1.\Bq,0,-1.1,-2.7,1.\Bq,0,-1.1,-2.5,1.\Bq,0,-1.1,-2.
 3,1.\Bq,0,-1.1,-2.1,1.\Bq,0,-1.1,-1.9,1.\Bq,0,-1.1,-1.7,1.\Bq,0,-1.1,-
 1.5,1.\Bq,0,-1.1,-1.3,1.\Bq,0,-1.1,-1.1,1.\Bq,0,-1.1,-0.9,1.\Bq,0,-1.1
 ,-0.7,1.\Bq,0,-1.1,-0.5,1.\Bq,0,-1.1,-0.3,1.\Bq,0,-1.1,-0.1,1.\Bq,0,-1
 .1,0.1,1.\Bq,0,-1.1,0.3,1.\Bq,0,-1.1,0.5,1.\Bq,0,-1.1,0.7,1.\Bq,0,-1.1
 ,0.9,1.\Bq,0,-1.1,1.1,1.\Bq,0,-1.1,1.3,1.\Bq,0,-1.1,1.5,1.\Bq,0,-1.1,1
 .7,1.\Bq,0,-1.1,1.9,1.\Bq,0,-1.1,2.1,1.\Bq,0,-1.1,2.3,1.\Bq,0,-1.1,2.5
 ,1.\Bq,0,-1.1,2.7,1.\Bq,0,-1.1,2.9,1.\Bq,0,-1.1,3.1,1.\Bq,0,-1.1,3.3,1
 .\Bq,0,-1.1,3.5,1.\Bq,0,-0.9,-3.5,1.\Bq,0,-0.9,-3.3,1.\Bq,0,-0.9,-3.1,
 1.\Bq,0,-0.9,-2.9,1.\Bq,0,-0.9,-2.7,1.\Bq,0,-0.9,-2.5,1.\Bq,0,-0.9,-2.
 3,1.\Bq,0,-0.9,-2.1,1.\Bq,0,-0.9,-1.9,1.\Bq,0,-0.9,-1.7,1.\Bq,0,-0.9,-
 1.5,1.\Bq,0,-0.9,-1.3,1.\Bq,0,-0.9,-1.1,1.\Bq,0,-0.9,-0.9,1.\Bq,0,-0.9
 ,-0.7,1.\Bq,0,-0.9,-0.5,1.\Bq,0,-0.9,-0.3,1.\Bq,0,-0.9,-0.1,1.\Bq,0,-0
 .9,0.1,1.\Bq,0,-0.9,0.3,1.\Bq,0,-0.9,0.5,1.\Bq,0,-0.9,0.7,1.\Bq,0,-0.9
 ,0.9,1.\Bq,0,-0.9,1.1,1.\Bq,0,-0.9,1.3,1.\Bq,0,-0.9,1.5,1.\Bq,0,-0.9,1
 .7,1.\Bq,0,-0.9,1.9,1.\Bq,0,-0.9,2.1,1.\Bq,0,-0.9,2.3,1.\Bq,0,-0.9,2.5
 ,1.\Bq,0,-0.9,2.7,1.\Bq,0,-0.9,2.9,1.\Bq,0,-0.9,3.1,1.\Bq,0,-0.9,3.3,1
 .\Bq,0,-0.9,3.5,1.\Bq,0,-0.7,-3.5,1.\Bq,0,-0.7,-3.3,1.\Bq,0,-0.7,-3.1,
 1.\Bq,0,-0.7,-2.9,1.\Bq,0,-0.7,-2.7,1.\Bq,0,-0.7,-2.5,1.\Bq,0,-0.7,-2.
 3,1.\Bq,0,-0.7,-2.1,1.\Bq,0,-0.7,-1.9,1.\Bq,0,-0.7,-1.7,1.\Bq,0,-0.7,-
 1.5,1.\Bq,0,-0.7,-1.3,1.\Bq,0,-0.7,-1.1,1.\Bq,0,-0.7,-0.9,1.\Bq,0,-0.7
 ,-0.7,1.\Bq,0,-0.7,-0.5,1.\Bq,0,-0.7,-0.3,1.\Bq,0,-0.7,-0.1,1.\Bq,0,-0
 .7,0.1,1.\Bq,0,-0.7,0.3,1.\Bq,0,-0.7,0.5,1.\Bq,0,-0.7,0.7,1.\Bq,0,-0.7
 ,0.9,1.\Bq,0,-0.7,1.1,1.\Bq,0,-0.7,1.3,1.\Bq,0,-0.7,1.5,1.\Bq,0,-0.7,1
 .7,1.\Bq,0,-0.7,1.9,1.\Bq,0,-0.7,2.1,1.\Bq,0,-0.7,2.3,1.\Bq,0,-0.7,2.5
 ,1.\Bq,0,-0.7,2.7,1.\Bq,0,-0.7,2.9,1.\Bq,0,-0.7,3.1,1.\Bq,0,-0.7,3.3,1
 .\Bq,0,-0.7,3.5,1.\Bq,0,-0.5,-3.5,1.\Bq,0,-0.5,-3.3,1.\Bq,0,-0.5,-3.1,
 1.\Bq,0,-0.5,-2.9,1.\Bq,0,-0.5,-2.7,1.\Bq,0,-0.5,-2.5,1.\Bq,0,-0.5,-2.
 3,1.\Bq,0,-0.5,-2.1,1.\Bq,0,-0.5,-1.9,1.\Bq,0,-0.5,-1.7,1.\Bq,0,-0.5,-
 1.5,1.\Bq,0,-0.5,-1.3,1.\Bq,0,-0.5,-1.1,1.\Bq,0,-0.5,-0.9,1.\Bq,0,-0.5
 ,-0.7,1.\Bq,0,-0.5,-0.5,1.\Bq,0,-0.5,-0.3,1.\Bq,0,-0.5,-0.1,1.\Bq,0,-0
 .5,0.1,1.\Bq,0,-0.5,0.3,1.\Bq,0,-0.5,0.5,1.\Bq,0,-0.5,0.7,1.\Bq,0,-0.5
 ,0.9,1.\Bq,0,-0.5,1.1,1.\Bq,0,-0.5,1.3,1.\Bq,0,-0.5,1.5,1.\Bq,0,-0.5,1
 .7,1.\Bq,0,-0.5,1.9,1.\Bq,0,-0.5,2.1,1.\Bq,0,-0.5,2.3,1.\Bq,0,-0.5,2.5
 ,1.\Bq,0,-0.5,2.7,1.\Bq,0,-0.5,2.9,1.\Bq,0,-0.5,3.1,1.\Bq,0,-0.5,3.3,1
 .\Bq,0,-0.5,3.5,1.\Bq,0,-0.3,-3.5,1.\Bq,0,-0.3,-3.3,1.\Bq,0,-0.3,-3.1,
 1.\Bq,0,-0.3,-2.9,1.\Bq,0,-0.3,-2.7,1.\Bq,0,-0.3,-2.5,1.\Bq,0,-0.3,-2.
 3,1.\Bq,0,-0.3,-2.1,1.\Bq,0,-0.3,-1.9,1.\Bq,0,-0.3,-1.7,1.\Bq,0,-0.3,-
 1.5,1.\Bq,0,-0.3,-1.3,1.\Bq,0,-0.3,-1.1,1.\Bq,0,-0.3,-0.9,1.\Bq,0,-0.3
 ,-0.7,1.\Bq,0,-0.3,-0.5,1.\Bq,0,-0.3,-0.3,1.\Bq,0,-0.3,-0.1,1.\Bq,0,-0
 .3,0.1,1.\Bq,0,-0.3,0.3,1.\Bq,0,-0.3,0.5,1.\Bq,0,-0.3,0.7,1.\Bq,0,-0.3
 ,0.9,1.\Bq,0,-0.3,1.1,1.\Bq,0,-0.3,1.3,1.\Bq,0,-0.3,1.5,1.\Bq,0,-0.3,1
 .7,1.\Bq,0,-0.3,1.9,1.\Bq,0,-0.3,2.1,1.\Bq,0,-0.3,2.3,1.\Bq,0,-0.3,2.5
 ,1.\Bq,0,-0.3,2.7,1.\Bq,0,-0.3,2.9,1.\Bq,0,-0.3,3.1,1.\Bq,0,-0.3,3.3,1
 .\Bq,0,-0.3,3.5,1.\Bq,0,-0.1,-3.5,1.\Bq,0,-0.1,-3.3,1.\Bq,0,-0.1,-3.1,
 1.\Bq,0,-0.1,-2.9,1.\Bq,0,-0.1,-2.7,1.\Bq,0,-0.1,-2.5,1.\Bq,0,-0.1,-2.
 3,1.\Bq,0,-0.1,-2.1,1.\Bq,0,-0.1,-1.9,1.\Bq,0,-0.1,-1.7,1.\Bq,0,-0.1,-
 1.5,1.\Bq,0,-0.1,-1.3,1.\Bq,0,-0.1,-1.1,1.\Bq,0,-0.1,-0.9,1.\Bq,0,-0.1
 ,-0.7,1.\Bq,0,-0.1,-0.5,1.\Bq,0,-0.1,-0.3,1.\Bq,0,-0.1,-0.1,1.\Bq,0,-0
 .1,0.1,1.\Bq,0,-0.1,0.3,1.\Bq,0,-0.1,0.5,1.\Bq,0,-0.1,0.7,1.\Bq,0,-0.1
 ,0.9,1.\Bq,0,-0.1,1.1,1.\Bq,0,-0.1,1.3,1.\Bq,0,-0.1,1.5,1.\Bq,0,-0.1,1
 .7,1.\Bq,0,-0.1,1.9,1.\Bq,0,-0.1,2.1,1.\Bq,0,-0.1,2.3,1.\Bq,0,-0.1,2.5
 ,1.\Bq,0,-0.1,2.7,1.\Bq,0,-0.1,2.9,1.\Bq,0,-0.1,3.1,1.\Bq,0,-0.1,3.3,1
 .\Bq,0,-0.1,3.5,1.\Bq,0,0.1,-3.5,1.\Bq,0,0.1,-3.3,1.\Bq,0,0.1,-3.1,1.\
 Bq,0,0.1,-2.9,1.\Bq,0,0.1,-2.7,1.\Bq,0,0.1,-2.5,1.\Bq,0,0.1,-2.3,1.\Bq
 ,0,0.1,-2.1,1.\Bq,0,0.1,-1.9,1.\Bq,0,0.1,-1.7,1.\Bq,0,0.1,-1.5,1.\Bq,0
 ,0.1,-1.3,1.\Bq,0,0.1,-1.1,1.\Bq,0,0.1,-0.9,1.\Bq,0,0.1,-0.7,1.\Bq,0,0
 .1,-0.5,1.\Bq,0,0.1,-0.3,1.\Bq,0,0.1,-0.1,1.\Bq,0,0.1,0.1,1.\Bq,0,0.1,
 0.3,1.\Bq,0,0.1,0.5,1.\Bq,0,0.1,0.7,1.\Bq,0,0.1,0.9,1.\Bq,0,0.1,1.1,1.
 \Bq,0,0.1,1.3,1.\Bq,0,0.1,1.5,1.\Bq,0,0.1,1.7,1.\Bq,0,0.1,1.9,1.\Bq,0,
 0.1,2.1,1.\Bq,0,0.1,2.3,1.\Bq,0,0.1,2.5,1.\Bq,0,0.1,2.7,1.\Bq,0,0.1,2.
 9,1.\Bq,0,0.1,3.1,1.\Bq,0,0.1,3.3,1.\Bq,0,0.1,3.5,1.\Bq,0,0.3,-3.5,1.\
 Bq,0,0.3,-3.3,1.\Bq,0,0.3,-3.1,1.\Bq,0,0.3,-2.9,1.\Bq,0,0.3,-2.7,1.\Bq
 ,0,0.3,-2.5,1.\Bq,0,0.3,-2.3,1.\Bq,0,0.3,-2.1,1.\Bq,0,0.3,-1.9,1.\Bq,0
 ,0.3,-1.7,1.\Bq,0,0.3,-1.5,1.\Bq,0,0.3,-1.3,1.\Bq,0,0.3,-1.1,1.\Bq,0,0
 .3,-0.9,1.\Bq,0,0.3,-0.7,1.\Bq,0,0.3,-0.5,1.\Bq,0,0.3,-0.3,1.\Bq,0,0.3
 ,-0.1,1.\Bq,0,0.3,0.1,1.\Bq,0,0.3,0.3,1.\Bq,0,0.3,0.5,1.\Bq,0,0.3,0.7,
 1.\Bq,0,0.3,0.9,1.\Bq,0,0.3,1.1,1.\Bq,0,0.3,1.3,1.\Bq,0,0.3,1.5,1.\Bq,
 0,0.3,1.7,1.\Bq,0,0.3,1.9,1.\Bq,0,0.3,2.1,1.\Bq,0,0.3,2.3,1.\Bq,0,0.3,
 2.5,1.\Bq,0,0.3,2.7,1.\Bq,0,0.3,2.9,1.\Bq,0,0.3,3.1,1.\Bq,0,0.3,3.3,1.
 \Bq,0,0.3,3.5,1.\Bq,0,0.5,-3.5,1.\Bq,0,0.5,-3.3,1.\Bq,0,0.5,-3.1,1.\Bq
 ,0,0.5,-2.9,1.\Bq,0,0.5,-2.7,1.\Bq,0,0.5,-2.5,1.\Bq,0,0.5,-2.3,1.\Bq,0
 ,0.5,-2.1,1.\Bq,0,0.5,-1.9,1.\Bq,0,0.5,-1.7,1.\Bq,0,0.5,-1.5,1.\Bq,0,0
 .5,-1.3,1.\Bq,0,0.5,-1.1,1.\Bq,0,0.5,-0.9,1.\Bq,0,0.5,-0.7,1.\Bq,0,0.5
 ,-0.5,1.\Bq,0,0.5,-0.3,1.\Bq,0,0.5,-0.1,1.\Bq,0,0.5,0.1,1.\Bq,0,0.5,0.
 3,1.\Bq,0,0.5,0.5,1.\Bq,0,0.5,0.7,1.\Bq,0,0.5,0.9,1.\Bq,0,0.5,1.1,1.\B
 q,0,0.5,1.3,1.\Bq,0,0.5,1.5,1.\Bq,0,0.5,1.7,1.\Bq,0,0.5,1.9,1.\Bq,0,0.
 5,2.1,1.\Bq,0,0.5,2.3,1.\Bq,0,0.5,2.5,1.\Bq,0,0.5,2.7,1.\Bq,0,0.5,2.9,
 1.\Bq,0,0.5,3.1,1.\Bq,0,0.5,3.3,1.\Bq,0,0.5,3.5,1.\Bq,0,0.7,-3.5,1.\Bq
 ,0,0.7,-3.3,1.\Bq,0,0.7,-3.1,1.\Bq,0,0.7,-2.9,1.\Bq,0,0.7,-2.7,1.\Bq,0
 ,0.7,-2.5,1.\Bq,0,0.7,-2.3,1.\Bq,0,0.7,-2.1,1.\Bq,0,0.7,-1.9,1.\Bq,0,0
 .7,-1.7,1.\Bq,0,0.7,-1.5,1.\Bq,0,0.7,-1.3,1.\Bq,0,0.7,-1.1,1.\Bq,0,0.7
 ,-0.9,1.\Bq,0,0.7,-0.7,1.\Bq,0,0.7,-0.5,1.\Bq,0,0.7,-0.3,1.\Bq,0,0.7,-
 0.1,1.\Bq,0,0.7,0.1,1.\Bq,0,0.7,0.3,1.\Bq,0,0.7,0.5,1.\Bq,0,0.7,0.7,1.
 \Bq,0,0.7,0.9,1.\Bq,0,0.7,1.1,1.\Bq,0,0.7,1.3,1.\Bq,0,0.7,1.5,1.\Bq,0,
 0.7,1.7,1.\Bq,0,0.7,1.9,1.\Bq,0,0.7,2.1,1.\Bq,0,0.7,2.3,1.\Bq,0,0.7,2.
 5,1.\Bq,0,0.7,2.7,1.\Bq,0,0.7,2.9,1.\Bq,0,0.7,3.1,1.\Bq,0,0.7,3.3,1.\B
 q,0,0.7,3.5,1.\Bq,0,0.9,-3.5,1.\Bq,0,0.9,-3.3,1.\Bq,0,0.9,-3.1,1.\Bq,0
 ,0.9,-2.9,1.\Bq,0,0.9,-2.7,1.\Bq,0,0.9,-2.5,1.\Bq,0,0.9,-2.3,1.\Bq,0,0
 .9,-2.1,1.\Bq,0,0.9,-1.9,1.\Bq,0,0.9,-1.7,1.\Bq,0,0.9,-1.5,1.\Bq,0,0.9
 ,-1.3,1.\Bq,0,0.9,-1.1,1.\Bq,0,0.9,-0.9,1.\Bq,0,0.9,-0.7,1.\Bq,0,0.9,-
 0.5,1.\Bq,0,0.9,-0.3,1.\Bq,0,0.9,-0.1,1.\Bq,0,0.9,0.1,1.\Bq,0,0.9,0.3,
 1.\Bq,0,0.9,0.5,1.\Bq,0,0.9,0.7,1.\Bq,0,0.9,0.9,1.\Bq,0,0.9,1.1,1.\Bq,
 0,0.9,1.3,1.\Bq,0,0.9,1.5,1.\Bq,0,0.9,1.7,1.\Bq,0,0.9,1.9,1.\Bq,0,0.9,
 2.1,1.\Bq,0,0.9,2.3,1.\Bq,0,0.9,2.5,1.\Bq,0,0.9,2.7,1.\Bq,0,0.9,2.9,1.
 \Bq,0,0.9,3.1,1.\Bq,0,0.9,3.3,1.\Bq,0,0.9,3.5,1.\Bq,0,1.1,-3.5,1.\Bq,0
 ,1.1,-3.3,1.\Bq,0,1.1,-3.1,1.\Bq,0,1.1,-2.9,1.\Bq,0,1.1,-2.7,1.\Bq,0,1
 .1,-2.5,1.\Bq,0,1.1,-2.3,1.\Bq,0,1.1,-2.1,1.\Bq,0,1.1,-1.9,1.\Bq,0,1.1
 ,-1.7,1.\Bq,0,1.1,-1.5,1.\Bq,0,1.1,-1.3,1.\Bq,0,1.1,-1.1,1.\Bq,0,1.1,-
 0.9,1.\Bq,0,1.1,-0.7,1.\Bq,0,1.1,-0.5,1.\Bq,0,1.1,-0.3,1.\Bq,0,1.1,-0.
 1,1.\Bq,0,1.1,0.1,1.\Bq,0,1.1,0.3,1.\Bq,0,1.1,0.5,1.\Bq,0,1.1,0.7,1.\B
 q,0,1.1,0.9,1.\Bq,0,1.1,1.1,1.\Bq,0,1.1,1.3,1.\Bq,0,1.1,1.5,1.\Bq,0,1.
 1,1.7,1.\Bq,0,1.1,1.9,1.\Bq,0,1.1,2.1,1.\Bq,0,1.1,2.3,1.\Bq,0,1.1,2.5,
 1.\Bq,0,1.1,2.7,1.\Bq,0,1.1,2.9,1.\Bq,0,1.1,3.1,1.\Bq,0,1.1,3.3,1.\Bq,
 0,1.1,3.5,1.\Bq,0,1.3,-3.5,1.\Bq,0,1.3,-3.3,1.\Bq,0,1.3,-3.1,1.\Bq,0,1
 .3,-2.9,1.\Bq,0,1.3,-2.7,1.\Bq,0,1.3,-2.5,1.\Bq,0,1.3,-2.3,1.\Bq,0,1.3
 ,-2.1,1.\Bq,0,1.3,-1.9,1.\Bq,0,1.3,-1.7,1.\Bq,0,1.3,-1.5,1.\Bq,0,1.3,-
 1.3,1.\Bq,0,1.3,-1.1,1.\Bq,0,1.3,-0.9,1.\Bq,0,1.3,-0.7,1.\Bq,0,1.3,-0.
 5,1.\Bq,0,1.3,-0.3,1.\Bq,0,1.3,-0.1,1.\Bq,0,1.3,0.1,1.\Bq,0,1.3,0.3,1.
 \Bq,0,1.3,0.5,1.\Bq,0,1.3,0.7,1.\Bq,0,1.3,0.9,1.\Bq,0,1.3,1.1,1.\Bq,0,
 1.3,1.3,1.\Bq,0,1.3,1.5,1.\Bq,0,1.3,1.7,1.\Bq,0,1.3,1.9,1.\Bq,0,1.3,2.
 1,1.\Bq,0,1.3,2.3,1.\Bq,0,1.3,2.5,1.\Bq,0,1.3,2.7,1.\Bq,0,1.3,2.9,1.\B
 q,0,1.3,3.1,1.\Bq,0,1.3,3.3,1.\Bq,0,1.3,3.5,1.\Bq,0,1.5,-3.5,1.\Bq,0,1
 .5,-3.3,1.\Bq,0,1.5,-3.1,1.\Bq,0,1.5,-2.9,1.\Bq,0,1.5,-2.7,1.\Bq,0,1.5
 ,-2.5,1.\Bq,0,1.5,-2.3,1.\Bq,0,1.5,-2.1,1.\Bq,0,1.5,-1.9,1.\Bq,0,1.5,-
 1.7,1.\Bq,0,1.5,-1.5,1.\Bq,0,1.5,-1.3,1.\Bq,0,1.5,-1.1,1.\Bq,0,1.5,-0.
 9,1.\Bq,0,1.5,-0.7,1.\Bq,0,1.5,-0.5,1.\Bq,0,1.5,-0.3,1.\Bq,0,1.5,-0.1,
 1.\Bq,0,1.5,0.1,1.\Bq,0,1.5,0.3,1.\Bq,0,1.5,0.5,1.\Bq,0,1.5,0.7,1.\Bq,
 0,1.5,0.9,1.\Bq,0,1.5,1.1,1.\Bq,0,1.5,1.3,1.\Bq,0,1.5,1.5,1.\Bq,0,1.5,
 1.7,1.\Bq,0,1.5,1.9,1.\Bq,0,1.5,2.1,1.\Bq,0,1.5,2.3,1.\Bq,0,1.5,2.5,1.
 \Bq,0,1.5,2.7,1.\Bq,0,1.5,2.9,1.\Bq,0,1.5,3.1,1.\Bq,0,1.5,3.3,1.\Bq,0,
 1.5,3.5,1.\Bq,0,1.7,-3.5,1.\Bq,0,1.7,-3.3,1.\Bq,0,1.7,-3.1,1.\Bq,0,1.7
 ,-2.9,1.\Bq,0,1.7,-2.7,1.\Bq,0,1.7,-2.5,1.\Bq,0,1.7,-2.3,1.\Bq,0,1.7,-
 2.1,1.\Bq,0,1.7,-1.9,1.\Bq,0,1.7,-1.7,1.\Bq,0,1.7,-1.5,1.\Bq,0,1.7,-1.
 3,1.\Bq,0,1.7,-1.1,1.\Bq,0,1.7,-0.9,1.\Bq,0,1.7,-0.7,1.\Bq,0,1.7,-0.5,
 1.\Bq,0,1.7,-0.3,1.\Bq,0,1.7,-0.1,1.\Bq,0,1.7,0.1,1.\Bq,0,1.7,0.3,1.\B
 q,0,1.7,0.5,1.\Bq,0,1.7,0.7,1.\Bq,0,1.7,0.9,1.\Bq,0,1.7,1.1,1.\Bq,0,1.
 7,1.3,1.\Bq,0,1.7,1.5,1.\Bq,0,1.7,1.7,1.\Bq,0,1.7,1.9,1.\Bq,0,1.7,2.1,
 1.\Bq,0,1.7,2.3,1.\Bq,0,1.7,2.5,1.\Bq,0,1.7,2.7,1.\Bq,0,1.7,2.9,1.\Bq,
 0,1.7,3.1,1.\Bq,0,1.7,3.3,1.\Bq,0,1.7,3.5,1.\Bq,0,1.9,-3.5,1.\Bq,0,1.9
 ,-3.3,1.\Bq,0,1.9,-3.1,1.\Bq,0,1.9,-2.9,1.\Bq,0,1.9,-2.7,1.\Bq,0,1.9,-
 2.5,1.\Bq,0,1.9,-2.3,1.\Bq,0,1.9,-2.1,1.\Bq,0,1.9,-1.9,1.\Bq,0,1.9,-1.
 7,1.\Bq,0,1.9,-1.5,1.\Bq,0,1.9,-1.3,1.\Bq,0,1.9,-1.1,1.\Bq,0,1.9,-0.9,
 1.\Bq,0,1.9,-0.7,1.\Bq,0,1.9,-0.5,1.\Bq,0,1.9,-0.3,1.\Bq,0,1.9,-0.1,1.
 \Bq,0,1.9,0.1,1.\Bq,0,1.9,0.3,1.\Bq,0,1.9,0.5,1.\Bq,0,1.9,0.7,1.\Bq,0,
 1.9,0.9,1.\Bq,0,1.9,1.1,1.\Bq,0,1.9,1.3,1.\Bq,0,1.9,1.5,1.\Bq,0,1.9,1.
 7,1.\Bq,0,1.9,1.9,1.\Bq,0,1.9,2.1,1.\Bq,0,1.9,2.3,1.\Bq,0,1.9,2.5,1.\B
 q,0,1.9,2.7,1.\Bq,0,1.9,2.9,1.\Bq,0,1.9,3.1,1.\Bq,0,1.9,3.3,1.\Bq,0,1.
 9,3.5,1.\Bq,0,2.1,-3.5,1.\Bq,0,2.1,-3.3,1.\Bq,0,2.1,-3.1,1.\Bq,0,2.1,-
 2.9,1.\Bq,0,2.1,-2.7,1.\Bq,0,2.1,-2.5,1.\Bq,0,2.1,-2.3,1.\Bq,0,2.1,-2.
 1,1.\Bq,0,2.1,-1.9,1.\Bq,0,2.1,-1.7,1.\Bq,0,2.1,-1.5,1.\Bq,0,2.1,-1.3,
 1.\Bq,0,2.1,-1.1,1.\Bq,0,2.1,-0.9,1.\Bq,0,2.1,-0.7,1.\Bq,0,2.1,-0.5,1.
 \Bq,0,2.1,-0.3,1.\Bq,0,2.1,-0.1,1.\Bq,0,2.1,0.1,1.\Bq,0,2.1,0.3,1.\Bq,
 0,2.1,0.5,1.\Bq,0,2.1,0.7,1.\Bq,0,2.1,0.9,1.\Bq,0,2.1,1.1,1.\Bq,0,2.1,
 1.3,1.\Bq,0,2.1,1.5,1.\Bq,0,2.1,1.7,1.\Bq,0,2.1,1.9,1.\Bq,0,2.1,2.1,1.
 \Bq,0,2.1,2.3,1.\Bq,0,2.1,2.5,1.\Bq,0,2.1,2.7,1.\Bq,0,2.1,2.9,1.\Bq,0,
 2.1,3.1,1.\Bq,0,2.1,3.3,1.\Bq,0,2.1,3.5,1.\Bq,0,2.3,-3.5,1.\Bq,0,2.3,-
 3.3,1.\Bq,0,2.3,-3.1,1.\Bq,0,2.3,-2.9,1.\Bq,0,2.3,-2.7,1.\Bq,0,2.3,-2.
 5,1.\Bq,0,2.3,-2.3,1.\Bq,0,2.3,-2.1,1.\Bq,0,2.3,-1.9,1.\Bq,0,2.3,-1.7,
 1.\Bq,0,2.3,-1.5,1.\Bq,0,2.3,-1.3,1.\Bq,0,2.3,-1.1,1.\Bq,0,2.3,-0.9,1.
 \Bq,0,2.3,-0.7,1.\Bq,0,2.3,-0.5,1.\Bq,0,2.3,-0.3,1.\Bq,0,2.3,-0.1,1.\B
 q,0,2.3,0.1,1.\Bq,0,2.3,0.3,1.\Bq,0,2.3,0.5,1.\Bq,0,2.3,0.7,1.\Bq,0,2.
 3,0.9,1.\Bq,0,2.3,1.1,1.\Bq,0,2.3,1.3,1.\Bq,0,2.3,1.5,1.\Bq,0,2.3,1.7,
 1.\Bq,0,2.3,1.9,1.\Bq,0,2.3,2.1,1.\Bq,0,2.3,2.3,1.\Bq,0,2.3,2.5,1.\Bq,
 0,2.3,2.7,1.\Bq,0,2.3,2.9,1.\Bq,0,2.3,3.1,1.\Bq,0,2.3,3.3,1.\Bq,0,2.3,
 3.5,1.\Bq,0,2.5,-3.5,1.\Bq,0,2.5,-3.3,1.\Bq,0,2.5,-3.1,1.\Bq,0,2.5,-2.
 9,1.\Bq,0,2.5,-2.7,1.\Bq,0,2.5,-2.5,1.\Bq,0,2.5,-2.3,1.\Bq,0,2.5,-2.1,
 1.\Bq,0,2.5,-1.9,1.\Bq,0,2.5,-1.7,1.\Bq,0,2.5,-1.5,1.\Bq,0,2.5,-1.3,1.
 \Bq,0,2.5,-1.1,1.\Bq,0,2.5,-0.9,1.\Bq,0,2.5,-0.7,1.\Bq,0,2.5,-0.5,1.\B
 q,0,2.5,-0.3,1.\Bq,0,2.5,-0.1,1.\Bq,0,2.5,0.1,1.\Bq,0,2.5,0.3,1.\Bq,0,
 2.5,0.5,1.\Bq,0,2.5,0.7,1.\Bq,0,2.5,0.9,1.\Bq,0,2.5,1.1,1.\Bq,0,2.5,1.
 3,1.\Bq,0,2.5,1.5,1.\Bq,0,2.5,1.7,1.\Bq,0,2.5,1.9,1.\Bq,0,2.5,2.1,1.\B
 q,0,2.5,2.3,1.\Bq,0,2.5,2.5,1.\Bq,0,2.5,2.7,1.\Bq,0,2.5,2.9,1.\Bq,0,2.
 5,3.1,1.\Bq,0,2.5,3.3,1.\Bq,0,2.5,3.5,1.\Bq,0,2.7,-3.5,1.\Bq,0,2.7,-3.
 3,1.\Bq,0,2.7,-3.1,1.\Bq,0,2.7,-2.9,1.\Bq,0,2.7,-2.7,1.\Bq,0,2.7,-2.5,
 1.\Bq,0,2.7,-2.3,1.\Bq,0,2.7,-2.1,1.\Bq,0,2.7,-1.9,1.\Bq,0,2.7,-1.7,1.
 \Bq,0,2.7,-1.5,1.\Bq,0,2.7,-1.3,1.\Bq,0,2.7,-1.1,1.\Bq,0,2.7,-0.9,1.\B
 q,0,2.7,-0.7,1.\Bq,0,2.7,-0.5,1.\Bq,0,2.7,-0.3,1.\Bq,0,2.7,-0.1,1.\Bq,
 0,2.7,0.1,1.\Bq,0,2.7,0.3,1.\Bq,0,2.7,0.5,1.\Bq,0,2.7,0.7,1.\Bq,0,2.7,
 0.9,1.\Bq,0,2.7,1.1,1.\Bq,0,2.7,1.3,1.\Bq,0,2.7,1.5,1.\Bq,0,2.7,1.7,1.
 \Bq,0,2.7,1.9,1.\Bq,0,2.7,2.1,1.\Bq,0,2.7,2.3,1.\Bq,0,2.7,2.5,1.\Bq,0,
 2.7,2.7,1.\Bq,0,2.7,2.9,1.\Bq,0,2.7,3.1,1.\Bq,0,2.7,3.3,1.\Bq,0,2.7,3.
 5,1.\Bq,0,2.9,-3.5,1.\Bq,0,2.9,-3.3,1.\Bq,0,2.9,-3.1,1.\Bq,0,2.9,-2.9,
 1.\Bq,0,2.9,-2.7,1.\Bq,0,2.9,-2.5,1.\Bq,0,2.9,-2.3,1.\Bq,0,2.9,-2.1,1.
 \Bq,0,2.9,-1.9,1.\Bq,0,2.9,-1.7,1.\Bq,0,2.9,-1.5,1.\Bq,0,2.9,-1.3,1.\B
 q,0,2.9,-1.1,1.\Bq,0,2.9,-0.9,1.\Bq,0,2.9,-0.7,1.\Bq,0,2.9,-0.5,1.\Bq,
 0,2.9,-0.3,1.\Bq,0,2.9,-0.1,1.\Bq,0,2.9,0.1,1.\Bq,0,2.9,0.3,1.\Bq,0,2.
 9,0.5,1.\Bq,0,2.9,0.7,1.\Bq,0,2.9,0.9,1.\Bq,0,2.9,1.1,1.\Bq,0,2.9,1.3,
 1.\Bq,0,2.9,1.5,1.\Bq,0,2.9,1.7,1.\Bq,0,2.9,1.9,1.\Bq,0,2.9,2.1,1.\Bq,
 0,2.9,2.3,1.\Bq,0,2.9,2.5,1.\Bq,0,2.9,2.7,1.\Bq,0,2.9,2.9,1.\Bq,0,2.9,
 3.1,1.\Bq,0,2.9,3.3,1.\Bq,0,2.9,3.5,1.\Bq,0,3.1,-3.5,1.\Bq,0,3.1,-3.3,
 1.\Bq,0,3.1,-3.1,1.\Bq,0,3.1,-2.9,1.\Bq,0,3.1,-2.7,1.\Bq,0,3.1,-2.5,1.
 \Bq,0,3.1,-2.3,1.\Bq,0,3.1,-2.1,1.\Bq,0,3.1,-1.9,1.\Bq,0,3.1,-1.7,1.\B
 q,0,3.1,-1.5,1.\Bq,0,3.1,-1.3,1.\Bq,0,3.1,-1.1,1.\Bq,0,3.1,-0.9,1.\Bq,
 0,3.1,-0.7,1.\Bq,0,3.1,-0.5,1.\Bq,0,3.1,-0.3,1.\Bq,0,3.1,-0.1,1.\Bq,0,
 3.1,0.1,1.\Bq,0,3.1,0.3,1.\Bq,0,3.1,0.5,1.\Bq,0,3.1,0.7,1.\Bq,0,3.1,0.
 9,1.\Bq,0,3.1,1.1,1.\Bq,0,3.1,1.3,1.\Bq,0,3.1,1.5,1.\Bq,0,3.1,1.7,1.\B
 q,0,3.1,1.9,1.\Bq,0,3.1,2.1,1.\Bq,0,3.1,2.3,1.\Bq,0,3.1,2.5,1.\Bq,0,3.
 1,2.7,1.\Bq,0,3.1,2.9,1.\Bq,0,3.1,3.1,1.\Bq,0,3.1,3.3,1.\Bq,0,3.1,3.5,
 1.\Bq,0,3.3,-3.5,1.\Bq,0,3.3,-3.3,1.\Bq,0,3.3,-3.1,1.\Bq,0,3.3,-2.9,1.
 \Bq,0,3.3,-2.7,1.\Bq,0,3.3,-2.5,1.\Bq,0,3.3,-2.3,1.\Bq,0,3.3,-2.1,1.\B
 q,0,3.3,-1.9,1.\Bq,0,3.3,-1.7,1.\Bq,0,3.3,-1.5,1.\Bq,0,3.3,-1.3,1.\Bq,
 0,3.3,-1.1,1.\Bq,0,3.3,-0.9,1.\Bq,0,3.3,-0.7,1.\Bq,0,3.3,-0.5,1.\Bq,0,
 3.3,-0.3,1.\Bq,0,3.3,-0.1,1.\Bq,0,3.3,0.1,1.\Bq,0,3.3,0.3,1.\Bq,0,3.3,
 0.5,1.\Bq,0,3.3,0.7,1.\Bq,0,3.3,0.9,1.\Bq,0,3.3,1.1,1.\Bq,0,3.3,1.3,1.
 \Bq,0,3.3,1.5,1.\Bq,0,3.3,1.7,1.\Bq,0,3.3,1.9,1.\Bq,0,3.3,2.1,1.\Bq,0,
 3.3,2.3,1.\Bq,0,3.3,2.5,1.\Bq,0,3.3,2.7,1.\Bq,0,3.3,2.9,1.\Bq,0,3.3,3.
 1,1.\Bq,0,3.3,3.3,1.\Bq,0,3.3,3.5,1.\Bq,0,3.5,-3.5,1.\Bq,0,3.5,-3.3,1.
 \Bq,0,3.5,-3.1,1.\Bq,0,3.5,-2.9,1.\Bq,0,3.5,-2.7,1.\Bq,0,3.5,-2.5,1.\B
 q,0,3.5,-2.3,1.\Bq,0,3.5,-2.1,1.\Bq,0,3.5,-1.9,1.\Bq,0,3.5,-1.7,1.\Bq,
 0,3.5,-1.5,1.\Bq,0,3.5,-1.3,1.\Bq,0,3.5,-1.1,1.\Bq,0,3.5,-0.9,1.\Bq,0,
 3.5,-0.7,1.\Bq,0,3.5,-0.5,1.\Bq,0,3.5,-0.3,1.\Bq,0,3.5,-0.1,1.\Bq,0,3.
 5,0.1,1.\Bq,0,3.5,0.3,1.\Bq,0,3.5,0.5,1.\Bq,0,3.5,0.7,1.\Bq,0,3.5,0.9,
 1.\Bq,0,3.5,1.1,1.\Bq,0,3.5,1.3,1.\Bq,0,3.5,1.5,1.\Bq,0,3.5,1.7,1.\Bq,
 0,3.5,1.9,1.\Bq,0,3.5,2.1,1.\Bq,0,3.5,2.3,1.\Bq,0,3.5,2.5,1.\Bq,0,3.5,
 2.7,1.\Bq,0,3.5,2.9,1.\Bq,0,3.5,3.1,1.\Bq,0,3.5,3.3,1.\Bq,0,3.5,3.5,1.
 \\Version=EM64M-G16RevB.01\HF=-232.248651\RMSD=3.249e-09\Dipole=0.0000
 049,-0.0000001,-0.0000441\Quadrupole=1.7834791,1.7827945,-3.5662736,-0
 .0000799,-0.0000167,0.0000391\PG=C01 [X(C6H6)]\\@


    UPON JULIA'S CLOTHES

 WHENAS IN SILKS MY JULIA GOES,
 THEN, THEN, METHINKS, HOW SWEETLY FLOWS
 THAT LIQUEFACTION OF HER CLOTHES.

 NEXT, WHEN I CAST MINE EYES, AND SEE
 THAT BRAVE VIBRATION, EACH WAY FREE,
 O, HOW THAT GLITTERING TAKETH ME!
     -- ROBERT HERRICK, 1648
 Job cpu time:       0 days  0 hours  1 minutes  5.3 seconds.
 Elapsed time:       0 days  0 hours  0 minutes 10.3 seconds.
 File lengths (MBytes):  RWF=     14 Int=      0 D2E=      0 Chk=      5 Scr=      1
 Normal termination of Gaussian 16 at Tue May 11 10:25:03 2021.
