 Entering Gaussian System, Link 0=g16
 Initial command:
 /home/wangzhe/g16/l1.exe "/home/wangzhe/g16/Scratch/Gau-576059.inp" -scrdir="/home/wangzhe/g16/Scratch/"
 Default is to use a total of  16 processors:
                               16 via shared-memory
                                1 via Linda
 Entering Link 1 = /home/wangzhe/g16/l1.exe PID=    576062.
  
 Copyright (c) 1988-2017, Gaussian, Inc.  All Rights Reserved.
  
 This is part of the Gaussian(R) 16 program.  It is based on
 the Gaussian(R) 09 system (copyright 2009, Gaussian, Inc.),
 the Gaussian(R) 03 system (copyright 2003, Gaussian, Inc.),
 the Gaussian(R) 98 system (copyright 1998, Gaussian, Inc.),
 the Gaussian(R) 94 system (copyright 1995, Gaussian, Inc.),
 the Gaussian 92(TM) system (copyright 1992, Gaussian, Inc.),
 the Gaussian 90(TM) system (copyright 1990, Gaussian, Inc.),
 the Gaussian 88(TM) system (copyright 1988, Gaussian, Inc.),
 the Gaussian 86(TM) system (copyright 1986, Carnegie Mellon
 University), and the Gaussian 82(TM) system (copyright 1983,
 Carnegie Mellon University). Gaussian is a federally registered
 trademark of Gaussian, Inc.
  
 This software contains proprietary and confidential information,
 including trade secrets, belonging to Gaussian, Inc.
  
 This software is provided under written license and may be
 used, copied, transmitted, or stored only in accord with that
 written license.
  
 The following legend is applicable only to US Government
 contracts under FAR:
  
                    RESTRICTED RIGHTS LEGEND
  
 Use, reproduction and disclosure by the US Government is
 subject to restrictions as set forth in subparagraphs (a)
 and (c) of the Commercial Computer Software - Restricted
 Rights clause in FAR 52.227-19.
  
 Gaussian, Inc.
 340 Quinnipiac St., Bldg. 40, Wallingford CT 06492
  
  
 ---------------------------------------------------------------
 Warning -- This program may not be used in any manner that
 competes with the business of Gaussian, Inc. or will provide
 assistance to any competitor of Gaussian, Inc.  The licensee
 of this program is prohibited from giving any competitor of
 Gaussian, Inc. access to this program.  By using this program,
 the user acknowledges that Gaussian, Inc. is engaged in the
 business of creating and licensing software in the field of
 computational chemistry and represents and warrants to the
 licensee that it is not a competitor of Gaussian, Inc. and that
 it will not use this program in any manner prohibited above.
 ---------------------------------------------------------------
  

 Cite this work as:
 Gaussian 16, Revision B.01,
 M. J. Frisch, G. W. Trucks, H. B. Schlegel, G. E. Scuseria, 
 M. A. Robb, J. R. Cheeseman, G. Scalmani, V. Barone, 
 G. A. Petersson, H. Nakatsuji, X. Li, M. Caricato, A. V. Marenich, 
 J. Bloino, B. G. Janesko, R. Gomperts, B. Mennucci, H. P. Hratchian, 
 J. V. Ortiz, A. F. Izmaylov, J. L. Sonnenberg, D. Williams-Young, 
 F. Ding, F. Lipparini, F. Egidi, J. Goings, B. Peng, A. Petrone, 
 T. Henderson, D. Ranasinghe, V. G. Zakrzewski, J. Gao, N. Rega, 
 G. Zheng, W. Liang, M. Hada, M. Ehara, K. Toyota, R. Fukuda, 
 J. Hasegawa, M. Ishida, T. Nakajima, Y. Honda, O. Kitao, H. Nakai, 
 T. Vreven, K. Throssell, J. A. Montgomery, Jr., J. E. Peralta, 
 F. Ogliaro, M. J. Bearpark, J. J. Heyd, E. N. Brothers, K. N. Kudin, 
 V. N. Staroverov, T. A. Keith, R. Kobayashi, J. Normand, 
 K. Raghavachari, A. P. Rendell, J. C. Burant, S. S. Iyengar, 
 J. Tomasi, M. Cossi, J. M. Millam, M. Klene, C. Adamo, R. Cammi, 
 J. W. Ochterski, R. L. Martin, K. Morokuma, O. Farkas, 
 J. B. Foresman, and D. J. Fox, Gaussian, Inc., Wallingford CT, 2016.
 
 ******************************************
 Gaussian 16:  ES64L-G16RevB.01 20-Dec-2017
                12-Dec-2023 
 ******************************************
 %nprocshared=8
 Will use up to    8 processors via shared memory.
 %mem=10gb
 %chk=terphenyl_INICS.chk
 --------------------------------------------
 #p nmr=giao b3lyp/6-31g(d) geom=connectivity
 --------------------------------------------
 1/38=1,57=2,172=1/1;
 2/12=2,17=6,18=5,40=1/2;
 3/5=1,6=6,7=1,11=2,25=1,30=1,74=-5/1,2,3,8;
 4//1;
 5/5=2,38=5/2;
 8/6=1,10=90,11=11/1;
 10/13=100,45=16/2;
 6/7=2,8=2,9=2,10=2,28=1/1;
 99/9=1/99;
 Leave Link    1 at Tue Dec 12 09:53:24 2023, MaxMem=  1342177280 cpu:               0.2 elap:               0.0
 (Enter /home/wangzhe/g16/l101.exe)
 ---------------------------------
 INICS 10.00 0.20 50 // py.Aroma 4
 ---------------------------------
 Symbolic Z-matrix:
 Charge =  0 Multiplicity = 1
 H                    -1.479     0.028    -0.643 
 C                    -0.886     0.208     0.251 
 C                     0.585     0.709     2.562 
 C                     0.009    -0.773     0.711 
 C                    -1.043     1.417     0.933 
 C                    -0.307     1.667     2.088 
 C                     0.741    -0.5       1.879 
 H                    -1.744     2.161     0.562 
 H                    -0.43      2.608     2.619 
 H                     1.452    -1.231     2.26 
 H                     1.163     0.902     3.462 
 C                     0.174    -2.047    -0.008 
 C                     0.486    -4.486    -1.375 
 C                     0.486    -2.07     -1.375 
 C                     0.023    -3.278     0.657 
 C                     0.174    -4.509    -0.008 
 C                     0.641    -3.278    -2.055 
 H                     0.623    -1.138    -1.92 
 H                    -0.242    -3.278     1.714 
 H                     0.889    -3.278    -3.113 
 H                     0.623    -5.418    -1.92 
 C                     0.009    -5.783     0.711 
 C                    -0.307    -8.223     2.088 
 C                    -0.886    -6.764     0.251 
 C                     0.741    -6.056     1.879 
 C                     0.585    -7.265     2.562 
 C                    -1.043    -7.973     0.933 
 H                    -1.479    -6.584    -0.643 
 H                     1.452    -5.325     2.26 
 H                     1.163    -7.457     3.462 
 H                    -1.744    -8.717     0.562 
 H                    -0.43     -9.163     2.619 
 Bq                   -7.43646  -3.60303   6.92171 
 Bq                   -7.29073  -3.52188   6.81135 
 Bq                   -7.145    -3.44072   6.701 
 Bq                   -6.99928  -3.35957   6.59065 
 Bq                   -6.85355  -3.27841   6.48029 
 Bq                   -6.70783  -3.19726   6.36994 
 Bq                   -6.5621   -3.11611   6.25958 
 Bq                   -6.41638  -3.03495   6.14923 
 Bq                   -6.27065  -2.9538    6.03887 
 Bq                   -6.12492  -2.87264   5.92852 
 Bq                   -5.9792   -2.79149   5.81817 
 Bq                   -5.83347  -2.71034   5.70781 
 Bq                   -5.68775  -2.62918   5.59746 
 Bq                   -5.54202  -2.54803   5.4871 
 Bq                   -5.3963   -2.46687   5.37675 
 Bq                   -5.25057  -2.38572   5.2664 
 Bq                   -5.10484  -2.30457   5.15604 
 Bq                   -4.95912  -2.22341   5.04569 
 Bq                   -4.81339  -2.14226   4.93533 
 Bq                   -4.66767  -2.0611    4.82498 
 Bq                   -4.52194  -1.97995   4.71462 
 Bq                   -4.37621  -1.8988    4.60427 
 Bq                   -4.23049  -1.81764   4.49392 
 Bq                   -4.08476  -1.73649   4.38356 
 Bq                   -3.93904  -1.65534   4.27321 
 Bq                   -3.79331  -1.57418   4.16285 
 Bq                   -3.64759  -1.49303   4.0525 
 Bq                   -3.50186  -1.41187   3.94215 
 Bq                   -3.35613  -1.33072   3.83179 
 Bq                   -3.21041  -1.24957   3.72144 
 Bq                   -3.06468  -1.16841   3.61108 
 Bq                   -2.91896  -1.08726   3.50073 
 Bq                   -2.77323  -1.0061    3.39038 
 Bq                   -2.62751  -0.92495   3.28002 
 Bq                   -2.48178  -0.8438    3.16967 
 Bq                   -2.33605  -0.76264   3.05931 
 Bq                   -2.19033  -0.68149   2.94896 
 Bq                   -2.0446   -0.60033   2.8386 
 Bq                   -1.89888  -0.51918   2.72825 
 Bq                   -1.75315  -0.43803   2.6179 
 Bq                   -1.60742  -0.35687   2.50754 
 Bq                   -1.4617   -0.27572   2.39719 
 Bq                   -1.31597  -0.19457   2.28683 
 Bq                   -1.17025  -0.11341   2.17648 
 Bq                   -1.02452  -0.03226   2.06612 
 Bq                   -0.8788    0.0489    1.95577 
 Bq                   -0.73307   0.13005   1.84542 
 Bq                   -0.58734   0.21121   1.73506 
 Bq                   -0.44162   0.29236   1.62471 
 Bq                   -0.29589   0.37351   1.51435 
 Bq                   -0.15017   0.45467   1.404 
 Bq                   -0.00444   0.53582   1.29365 
 Bq                    0.14129   0.61697   1.18329 
 Bq                    0.28701   0.69813   1.07294 
 Bq                    0.43274   0.77928   0.96258 
 Bq                    0.57846   0.86044   0.85223 
 Bq                    0.72419   0.94159   0.74188 
 Bq                    0.86991   1.02274   0.63152 
 Bq                    1.01564   1.1039    0.52117 
 Bq                    1.16136   1.18505   0.41081 
 Bq                    1.30709   1.26621   0.30046 
 Bq                    1.45282   1.34736   0.1901 
 Bq                    1.59854   1.42851   0.07975 
 Bq                    1.74427   1.50967  -0.0306 
 Bq                    1.88999   1.59082  -0.14096 
 Bq                    2.03572   1.67198  -0.25131 
 Bq                    2.18145   1.75313  -0.36167 
 Bq                    2.32717   1.83428  -0.47202 
 Bq                    2.4729    1.91544  -0.58238 
 Bq                    2.61862   1.99659  -0.69273 
 Bq                    2.76435   2.07775  -0.80308 
 Bq                    2.91008   2.1589   -0.91344 
 Bq                    3.0558    2.24005  -1.02379 
 Bq                    3.20153   2.32121  -1.13415 
 Bq                    3.34725   2.40236  -1.2445 
 Bq                    3.49298   2.48351  -1.35485 
 Bq                    3.6387    2.56467  -1.46521 
 Bq                    3.78443   2.64582  -1.57556 
 Bq                    3.93016   2.72698  -1.68592 
 Bq                    4.07588   2.80813  -1.79627 
 Bq                    4.22161   2.88928  -1.90663 
 Bq                    4.36733   2.97044  -2.01698 
 Bq                    4.51306   3.05159  -2.12733 
 Bq                    4.65878   3.13274  -2.23769 
 Bq                    4.80451   3.2139   -2.34804 
 Bq                    4.95024   3.29505  -2.4584 
 Bq                    5.09596   3.37621  -2.56875 
 Bq                    5.24169   3.45736  -2.6791 
 Bq                    5.38741   3.53852  -2.78946 
 Bq                    5.53314   3.61967  -2.89981 
 Bq                    5.67886   3.70082  -3.01017 
 Bq                    5.82459   3.78198  -3.12052 
 Bq                    5.97032   3.86313  -3.23088 
 Bq                    6.11604   3.94428  -3.34123 
 Bq                    6.26177   4.02544  -3.45158 
 Bq                    6.40749   4.10659  -3.56194 
 Bq                    6.55322   4.18775  -3.67229 
 Bq                    6.69895   4.2689   -3.78265 
 Bq                    6.84467   4.35005  -3.893 
 Bq                    6.9904    4.43121  -4.00335 
 Bq                    7.13612   4.51236  -4.11371 
 Bq                   -9.41913  -3.278    -2.91694 
 Bq                   -9.22414  -3.278    -2.87248 
 Bq                   -9.02914  -3.278    -2.82802 
 Bq                   -8.83414  -3.278    -2.78356 
 Bq                   -8.63915  -3.278    -2.7391 
 Bq                   -8.44415  -3.278    -2.69465 
 Bq                   -8.24916  -3.278    -2.65019 
 Bq                   -8.05416  -3.278    -2.60573 
 Bq                   -7.85916  -3.278    -2.56127 
 Bq                   -7.66417  -3.278    -2.51681 
 Bq                   -7.46917  -3.278    -2.47235 
 Bq                   -7.27418  -3.278    -2.42789 
 Bq                   -7.07918  -3.278    -2.38343 
 Bq                   -6.88418  -3.278    -2.33898 
 Bq                   -6.68919  -3.278    -2.29452 
 Bq                   -6.49419  -3.278    -2.25006 
 Bq                   -6.2992   -3.278    -2.2056 
 Bq                   -6.1042   -3.278    -2.16114 
 Bq                   -5.9092   -3.278    -2.11668 
 Bq                   -5.71421  -3.278    -2.07222 
 Bq                   -5.51921  -3.278    -2.02776 
 Bq                   -5.32422  -3.278    -1.9833 
 Bq                   -5.12922  -3.278    -1.93885 
 Bq                   -4.93422  -3.278    -1.89439 
 Bq                   -4.73923  -3.278    -1.84993 
 Bq                   -4.54423  -3.278    -1.80547 
 Bq                   -4.34924  -3.278    -1.76101 
 Bq                   -4.15424  -3.278    -1.71655 
 Bq                   -3.95924  -3.278    -1.67209 
 Bq                   -3.76425  -3.278    -1.62763 
 Bq                   -3.56925  -3.278    -1.58318 
 Bq                   -3.37426  -3.278    -1.53872 
 Bq                   -3.17926  -3.278    -1.49426 
 Bq                   -2.98426  -3.278    -1.4498 
 Bq                   -2.78927  -3.278    -1.40534 
 Bq                   -2.59427  -3.278    -1.36088 
 Bq                   -2.39928  -3.278    -1.31642 
 Bq                   -2.20428  -3.278    -1.27196 
 Bq                   -2.00929  -3.278    -1.22751 
 Bq                   -1.81429  -3.278    -1.18305 
 Bq                   -1.61929  -3.278    -1.13859 
 Bq                   -1.4243   -3.278    -1.09413 
 Bq                   -1.2293   -3.278    -1.04967 
 Bq                   -1.03431  -3.278    -1.00521 
 Bq                   -0.83931  -3.278    -0.96075 
 Bq                   -0.64431  -3.278    -0.91629 
 Bq                   -0.44932  -3.278    -0.87184 
 Bq                   -0.25432  -3.278    -0.82738 
 Bq                   -0.05933  -3.278    -0.78292 
 Bq                    0.13567  -3.278    -0.73846 
 Bq                    0.33067  -3.278    -0.694 
 Bq                    0.52566  -3.278    -0.64954 
 Bq                    0.72066  -3.278    -0.60508 
 Bq                    0.91565  -3.278    -0.56062 
 Bq                    1.11065  -3.278    -0.51617 
 Bq                    1.30565  -3.278    -0.47171 
 Bq                    1.50064  -3.278    -0.42725 
 Bq                    1.69564  -3.278    -0.38279 
 Bq                    1.89063  -3.278    -0.33833 
 Bq                    2.08563  -3.278    -0.29387 
 Bq                    2.28063  -3.278    -0.24941 
 Bq                    2.47562  -3.278    -0.20495 
 Bq                    2.67062  -3.278    -0.1605 
 Bq                    2.86561  -3.278    -0.11604 
 Bq                    3.06061  -3.278    -0.07158 
 Bq                    3.25561  -3.278    -0.02712 
 Bq                    3.4506   -3.278     0.01734 
 Bq                    3.6456   -3.278     0.0618 
 Bq                    3.84059  -3.278     0.10626 
 Bq                    4.03559  -3.278     0.15072 
 Bq                    4.23059  -3.278     0.19518 
 Bq                    4.42558  -3.278     0.23963 
 Bq                    4.62058  -3.278     0.28409 
 Bq                    4.81557  -3.278     0.32855 
 Bq                    5.01057  -3.278     0.37301 
 Bq                    5.20556  -3.278     0.41747 
 Bq                    5.40056  -3.278     0.46193 
 Bq                    5.59556  -3.278     0.50639 
 Bq                    5.79055  -3.278     0.55085 
 Bq                    5.98555  -3.278     0.5953 
 Bq                    6.18055  -3.278     0.63976 
 Bq                    6.37554  -3.278     0.68422 
 Bq                    6.57054  -3.278     0.72868 
 Bq                    6.76553  -3.278     0.77314 
 Bq                    6.96053  -3.278     0.8176 
 Bq                    7.15552  -3.278     0.86206 
 Bq                    7.35052  -3.278     0.90652 
 Bq                    7.54552  -3.278     0.95098 
 Bq                    7.74051  -3.278     0.99543 
 Bq                    7.93551  -3.278     1.03989 
 Bq                    8.1305   -3.278     1.08435 
 Bq                    8.3255   -3.278     1.12881 
 Bq                    8.5205   -3.278     1.17327 
 Bq                    8.71549  -3.278     1.21773 
 Bq                    8.91049  -3.278     1.26219 
 Bq                    9.10548  -3.278     1.30665 
 Bq                    9.30048  -3.278     1.3511 
 Bq                    9.49548  -3.278     1.39556 
 Bq                    9.69047  -3.278     1.44002 
 Bq                    9.88547  -3.278     1.48448 
 Bq                    10.08046  -3.278     1.52894 
 Bq                   -7.43646  -2.95297   6.92171 
 Bq                   -7.29073  -3.03412   6.81135 
 Bq                   -7.145    -3.11528   6.701 
 Bq                   -6.99928  -3.19643   6.59065 
 Bq                   -6.85355  -3.27759   6.48029 
 Bq                   -6.70783  -3.35874   6.36994 
 Bq                   -6.5621   -3.43989   6.25958 
 Bq                   -6.41638  -3.52105   6.14923 
 Bq                   -6.27065  -3.6022    6.03887 
 Bq                   -6.12492  -3.68336   5.92852 
 Bq                   -5.9792   -3.76451   5.81817 
 Bq                   -5.83347  -3.84566   5.70781 
 Bq                   -5.68775  -3.92682   5.59746 
 Bq                   -5.54202  -4.00797   5.4871 
 Bq                   -5.3963   -4.08913   5.37675 
 Bq                   -5.25057  -4.17028   5.2664 
 Bq                   -5.10484  -4.25143   5.15604 
 Bq                   -4.95912  -4.33259   5.04569 
 Bq                   -4.81339  -4.41374   4.93533 
 Bq                   -4.66767  -4.4949    4.82498 
 Bq                   -4.52194  -4.57605   4.71462 
 Bq                   -4.37621  -4.6572    4.60427 
 Bq                   -4.23049  -4.73836   4.49392 
 Bq                   -4.08476  -4.81951   4.38356 
 Bq                   -3.93904  -4.90067   4.27321 
 Bq                   -3.79331  -4.98182   4.16285 
 Bq                   -3.64759  -5.06297   4.0525 
 Bq                   -3.50186  -5.14413   3.94215 
 Bq                   -3.35613  -5.22528   3.83179 
 Bq                   -3.21041  -5.30644   3.72144 
 Bq                   -3.06468  -5.38759   3.61108 
 Bq                   -2.91896  -5.46874   3.50073 
 Bq                   -2.77323  -5.5499    3.39038 
 Bq                   -2.62751  -5.63105   3.28002 
 Bq                   -2.48178  -5.7122    3.16967 
 Bq                   -2.33605  -5.79336   3.05931 
 Bq                   -2.19033  -5.87451   2.94896 
 Bq                   -2.0446   -5.95567   2.8386 
 Bq                   -1.89888  -6.03682   2.72825 
 Bq                   -1.75315  -6.11797   2.6179 
 Bq                   -1.60742  -6.19913   2.50754 
 Bq                   -1.4617   -6.28028   2.39719 
 Bq                   -1.31597  -6.36144   2.28683 
 Bq                   -1.17025  -6.44259   2.17648 
 Bq                   -1.02452  -6.52374   2.06612 
 Bq                   -0.8788   -6.6049    1.95577 
 Bq                   -0.73307  -6.68605   1.84542 
 Bq                   -0.58734  -6.76721   1.73506 
 Bq                   -0.44162  -6.84836   1.62471 
 Bq                   -0.29589  -6.92951   1.51435 
 Bq                   -0.15017  -7.01067   1.404 
 Bq                   -0.00444  -7.09182   1.29365 
 Bq                    0.14129  -7.17297   1.18329 
 Bq                    0.28701  -7.25413   1.07294 
 Bq                    0.43274  -7.33528   0.96258 
 Bq                    0.57846  -7.41644   0.85223 
 Bq                    0.72419  -7.49759   0.74188 
 Bq                    0.86991  -7.57874   0.63152 
 Bq                    1.01564  -7.6599    0.52117 
 Bq                    1.16136  -7.74105   0.41081 
 Bq                    1.30709  -7.82221   0.30046 
 Bq                    1.45282  -7.90336   0.1901 
 Bq                    1.59854  -7.98451   0.07975 
 Bq                    1.74427  -8.06567  -0.0306 
 Bq                    1.88999  -8.14682  -0.14096 
 Bq                    2.03572  -8.22798  -0.25131 
 Bq                    2.18145  -8.30913  -0.36167 
 Bq                    2.32717  -8.39028  -0.47202 
 Bq                    2.4729   -8.47144  -0.58238 
 Bq                    2.61862  -8.55259  -0.69273 
 Bq                    2.76435  -8.63375  -0.80308 
 Bq                    2.91008  -8.7149   -0.91344 
 Bq                    3.0558   -8.79605  -1.02379 
 Bq                    3.20153  -8.87721  -1.13415 
 Bq                    3.34725  -8.95836  -1.2445 
 Bq                    3.49298  -9.03951  -1.35485 
 Bq                    3.6387   -9.12067  -1.46521 
 Bq                    3.78443  -9.20182  -1.57556 
 Bq                    3.93016  -9.28298  -1.68592 
 Bq                    4.07588  -9.36413  -1.79627 
 Bq                    4.22161  -9.44528  -1.90663 
 Bq                    4.36733  -9.52644  -2.01698 
 Bq                    4.51306  -9.60759  -2.12733 
 Bq                    4.65878  -9.68875  -2.23769 
 Bq                    4.80451  -9.7699   -2.34804 
 Bq                    4.95024  -9.85105  -2.4584 
 Bq                    5.09596  -9.93221  -2.56875 
 Bq                    5.24169  -10.01336  -2.6791 
 Bq                    5.38741  -10.09451  -2.78946 
 Bq                    5.53314  -10.17567  -2.89981 
 Bq                    5.67886  -10.25682  -3.01017 
 Bq                    5.82459  -10.33798  -3.12052 
 Bq                    5.97032  -10.41913  -3.23088 
 Bq                    6.11604  -10.50028  -3.34123 
 Bq                    6.26177  -10.58144  -3.45158 
 Bq                    6.40749  -10.66259  -3.56194 
 Bq                    6.55322  -10.74375  -3.67229 
 Bq                    6.69895  -10.8249  -3.78265 
 Bq                    6.84467  -10.90605  -3.893 
 Bq                    6.9904   -10.98721  -4.00335 
 Bq                    7.13612  -11.06836  -4.11371 
 
 ITRead=  0  0  0  0  0  0  0  0  0  0  0  0  0  0  0  0  0  0  0  0
 ITRead=  0  0  0  0  0  0  0  0  0  0  0  0  0  0  0  0  0  0  0  0
 ITRead=  0  0  0  0  0  0  0  0  0  0  0  0  0  0  0  0  0  0  0  0
 ITRead=  0  0  0  0  0  0  0  0  0  0  0  0  0  0  0  0  0  0  0  0
 ITRead=  0  0  0  0  0  0  0  0  0  0  0  0  0  0  0  0  0  0  0  0
 ITRead=  0  0  0  0  0  0  0  0  0  0  0  0  0  0  0  0  0  0  0  0
 ITRead=  0  0  0  0  0  0  0  0  0  0  0  0  0  0  0  0  0  0  0  0
 ITRead=  0  0  0  0  0  0  0  0  0  0  0  0  0  0  0  0  0  0  0  0
 ITRead=  0  0  0  0  0  0  0  0  0  0  0  0  0  0  0  0  0  0  0  0
 ITRead=  0  0  0  0  0  0  0  0  0  0  0  0  0  0  0  0  0  0  0  0
 ITRead=  0  0  0  0  0  0  0  0  0  0  0  0  0  0  0  0  0  0  0  0
 ITRead=  0  0  0  0  0  0  0  0  0  0  0  0  0  0  0  0  0  0  0  0
 ITRead=  0  0  0  0  0  0  0  0  0  0  0  0  0  0  0  0  0  0  0  0
 ITRead=  0  0  0  0  0  0  0  0  0  0  0  0  0  0  0  0  0  0  0  0
 ITRead=  0  0  0  0  0  0  0  0  0  0  0  0  0  0  0  0  0  0  0  0
 ITRead=  0  0  0  0  0  0  0  0  0  0  0  0  0  0  0  0  0  0  0  0
 ITRead=  0  0  0  0  0  0  0  0  0  0  0  0  0  0  0
 MicOpt= -1 -1 -1 -1 -1 -1 -1 -1 -1 -1 -1 -1 -1 -1 -1 -1 -1 -1 -1 -1
 MicOpt= -1 -1 -1 -1 -1 -1 -1 -1 -1 -1 -1 -1 -1 -1 -1 -1 -1 -1 -1 -1
 MicOpt= -1 -1 -1 -1 -1 -1 -1 -1 -1 -1 -1 -1 -1 -1 -1 -1 -1 -1 -1 -1
 MicOpt= -1 -1 -1 -1 -1 -1 -1 -1 -1 -1 -1 -1 -1 -1 -1 -1 -1 -1 -1 -1
 MicOpt= -1 -1 -1 -1 -1 -1 -1 -1 -1 -1 -1 -1 -1 -1 -1 -1 -1 -1 -1 -1
 MicOpt= -1 -1 -1 -1 -1 -1 -1 -1 -1 -1 -1 -1 -1 -1 -1 -1 -1 -1 -1 -1
 MicOpt= -1 -1 -1 -1 -1 -1 -1 -1 -1 -1 -1 -1 -1 -1 -1 -1 -1 -1 -1 -1
 MicOpt= -1 -1 -1 -1 -1 -1 -1 -1 -1 -1 -1 -1 -1 -1 -1 -1 -1 -1 -1 -1
 MicOpt= -1 -1 -1 -1 -1 -1 -1 -1 -1 -1 -1 -1 -1 -1 -1 -1 -1 -1 -1 -1
 MicOpt= -1 -1 -1 -1 -1 -1 -1 -1 -1 -1 -1 -1 -1 -1 -1 -1 -1 -1 -1 -1
 MicOpt= -1 -1 -1 -1 -1 -1 -1 -1 -1 -1 -1 -1 -1 -1 -1 -1 -1 -1 -1 -1
 MicOpt= -1 -1 -1 -1 -1 -1 -1 -1 -1 -1 -1 -1 -1 -1 -1 -1 -1 -1 -1 -1
 MicOpt= -1 -1 -1 -1 -1 -1 -1 -1 -1 -1 -1 -1 -1 -1 -1 -1 -1 -1 -1 -1
 MicOpt= -1 -1 -1 -1 -1 -1 -1 -1 -1 -1 -1 -1 -1 -1 -1 -1 -1 -1 -1 -1
 MicOpt= -1 -1 -1 -1 -1 -1 -1 -1 -1 -1 -1 -1 -1 -1 -1 -1 -1 -1 -1 -1
 MicOpt= -1 -1 -1 -1 -1 -1 -1 -1 -1 -1 -1 -1 -1 -1 -1 -1 -1 -1 -1 -1
 MicOpt= -1 -1 -1 -1 -1 -1 -1 -1 -1 -1 -1 -1 -1 -1 -1
 NAtoms=    335 NQM=      335 NQMF=       0 NMMI=      0 NMMIF=      0
                NMic=       0 NMicF=      0.
                    Isotopes and Nuclear Properties:
 (Nuclear quadrupole moments (NQMom) in fm**2, nuclear magnetic moments (NMagM)
  in nuclear magnetons)

  Atom         1           2           3           4           5           6           7           8           9          10
 IAtWgt=           1          12          12          12          12          12          12           1           1           1
 AtmWgt=   1.0078250  12.0000000  12.0000000  12.0000000  12.0000000  12.0000000  12.0000000   1.0078250   1.0078250   1.0078250
 NucSpn=           1           0           0           0           0           0           0           1           1           1
 AtZEff=  -0.0000000  -0.0000000  -0.0000000  -0.0000000  -0.0000000  -0.0000000  -0.0000000  -0.0000000  -0.0000000  -0.0000000
 NQMom=    0.0000000   0.0000000   0.0000000   0.0000000   0.0000000   0.0000000   0.0000000   0.0000000   0.0000000   0.0000000
 NMagM=    2.7928460   0.0000000   0.0000000   0.0000000   0.0000000   0.0000000   0.0000000   2.7928460   2.7928460   2.7928460
 AtZNuc=   1.0000000   6.0000000   6.0000000   6.0000000   6.0000000   6.0000000   6.0000000   1.0000000   1.0000000   1.0000000

  Atom        11          12          13          14          15          16          17          18          19          20
 IAtWgt=           1          12          12          12          12          12          12           1           1           1
 AtmWgt=   1.0078250  12.0000000  12.0000000  12.0000000  12.0000000  12.0000000  12.0000000   1.0078250   1.0078250   1.0078250
 NucSpn=           1           0           0           0           0           0           0           1           1           1
 AtZEff=  -0.0000000  -0.0000000  -0.0000000  -0.0000000  -0.0000000  -0.0000000  -0.0000000  -0.0000000  -0.0000000  -0.0000000
 NQMom=    0.0000000   0.0000000   0.0000000   0.0000000   0.0000000   0.0000000   0.0000000   0.0000000   0.0000000   0.0000000
 NMagM=    2.7928460   0.0000000   0.0000000   0.0000000   0.0000000   0.0000000   0.0000000   2.7928460   2.7928460   2.7928460
 AtZNuc=   1.0000000   6.0000000   6.0000000   6.0000000   6.0000000   6.0000000   6.0000000   1.0000000   1.0000000   1.0000000

  Atom        21          22          23          24          25          26          27          28          29          30
 IAtWgt=           1          12          12          12          12          12          12           1           1           1
 AtmWgt=   1.0078250  12.0000000  12.0000000  12.0000000  12.0000000  12.0000000  12.0000000   1.0078250   1.0078250   1.0078250
 NucSpn=           1           0           0           0           0           0           0           1           1           1
 AtZEff=  -0.0000000  -0.0000000  -0.0000000  -0.0000000  -0.0000000  -0.0000000  -0.0000000  -0.0000000  -0.0000000  -0.0000000
 NQMom=    0.0000000   0.0000000   0.0000000   0.0000000   0.0000000   0.0000000   0.0000000   0.0000000   0.0000000   0.0000000
 NMagM=    2.7928460   0.0000000   0.0000000   0.0000000   0.0000000   0.0000000   0.0000000   2.7928460   2.7928460   2.7928460
 AtZNuc=   1.0000000   6.0000000   6.0000000   6.0000000   6.0000000   6.0000000   6.0000000   1.0000000   1.0000000   1.0000000

  Atom        31          32          33          34          35          36          37          38          39          40
 IAtWgt=           1           1           0           0           0           0           0           0           0           0
 AtmWgt=   1.0078250   1.0078250   0.0000000   0.0000000   0.0000000   0.0000000   0.0000000   0.0000000   0.0000000   0.0000000
 NucSpn=           1           1           0           0           0           0           0           0           0           0
 AtZEff=  -0.0000000  -0.0000000  -0.0000000  -0.0000000  -0.0000000  -0.0000000  -0.0000000  -0.0000000  -0.0000000  -0.0000000
 NQMom=    0.0000000   0.0000000   0.0000000   0.0000000   0.0000000   0.0000000   0.0000000   0.0000000   0.0000000   0.0000000
 NMagM=    2.7928460   2.7928460   0.0000000   0.0000000   0.0000000   0.0000000   0.0000000   0.0000000   0.0000000   0.0000000
 AtZNuc=   1.0000000   1.0000000   0.0000000   0.0000000   0.0000000   0.0000000   0.0000000   0.0000000   0.0000000   0.0000000

  Atom        41          42          43          44          45          46          47          48          49          50
 IAtWgt=           0           0           0           0           0           0           0           0           0           0
 AtmWgt=   0.0000000   0.0000000   0.0000000   0.0000000   0.0000000   0.0000000   0.0000000   0.0000000   0.0000000   0.0000000
 NucSpn=           0           0           0           0           0           0           0           0           0           0
 AtZEff=  -0.0000000  -0.0000000  -0.0000000  -0.0000000  -0.0000000  -0.0000000  -0.0000000  -0.0000000  -0.0000000  -0.0000000
 NQMom=    0.0000000   0.0000000   0.0000000   0.0000000   0.0000000   0.0000000   0.0000000   0.0000000   0.0000000   0.0000000
 NMagM=    0.0000000   0.0000000   0.0000000   0.0000000   0.0000000   0.0000000   0.0000000   0.0000000   0.0000000   0.0000000
 AtZNuc=   0.0000000   0.0000000   0.0000000   0.0000000   0.0000000   0.0000000   0.0000000   0.0000000   0.0000000   0.0000000

  Atom        51          52          53          54          55          56          57          58          59          60
 IAtWgt=           0           0           0           0           0           0           0           0           0           0
 AtmWgt=   0.0000000   0.0000000   0.0000000   0.0000000   0.0000000   0.0000000   0.0000000   0.0000000   0.0000000   0.0000000
 NucSpn=           0           0           0           0           0           0           0           0           0           0
 AtZEff=  -0.0000000  -0.0000000  -0.0000000  -0.0000000  -0.0000000  -0.0000000  -0.0000000  -0.0000000  -0.0000000  -0.0000000
 NQMom=    0.0000000   0.0000000   0.0000000   0.0000000   0.0000000   0.0000000   0.0000000   0.0000000   0.0000000   0.0000000
 NMagM=    0.0000000   0.0000000   0.0000000   0.0000000   0.0000000   0.0000000   0.0000000   0.0000000   0.0000000   0.0000000
 AtZNuc=   0.0000000   0.0000000   0.0000000   0.0000000   0.0000000   0.0000000   0.0000000   0.0000000   0.0000000   0.0000000

  Atom        61          62          63          64          65          66          67          68          69          70
 IAtWgt=           0           0           0           0           0           0           0           0           0           0
 AtmWgt=   0.0000000   0.0000000   0.0000000   0.0000000   0.0000000   0.0000000   0.0000000   0.0000000   0.0000000   0.0000000
 NucSpn=           0           0           0           0           0           0           0           0           0           0
 AtZEff=  -0.0000000  -0.0000000  -0.0000000  -0.0000000  -0.0000000  -0.0000000  -0.0000000  -0.0000000  -0.0000000  -0.0000000
 NQMom=    0.0000000   0.0000000   0.0000000   0.0000000   0.0000000   0.0000000   0.0000000   0.0000000   0.0000000   0.0000000
 NMagM=    0.0000000   0.0000000   0.0000000   0.0000000   0.0000000   0.0000000   0.0000000   0.0000000   0.0000000   0.0000000
 AtZNuc=   0.0000000   0.0000000   0.0000000   0.0000000   0.0000000   0.0000000   0.0000000   0.0000000   0.0000000   0.0000000

  Atom        71          72          73          74          75          76          77          78          79          80
 IAtWgt=           0           0           0           0           0           0           0           0           0           0
 AtmWgt=   0.0000000   0.0000000   0.0000000   0.0000000   0.0000000   0.0000000   0.0000000   0.0000000   0.0000000   0.0000000
 NucSpn=           0           0           0           0           0           0           0           0           0           0
 AtZEff=  -0.0000000  -0.0000000  -0.0000000  -0.0000000  -0.0000000  -0.0000000  -0.0000000  -0.0000000  -0.0000000  -0.0000000
 NQMom=    0.0000000   0.0000000   0.0000000   0.0000000   0.0000000   0.0000000   0.0000000   0.0000000   0.0000000   0.0000000
 NMagM=    0.0000000   0.0000000   0.0000000   0.0000000   0.0000000   0.0000000   0.0000000   0.0000000   0.0000000   0.0000000
 AtZNuc=   0.0000000   0.0000000   0.0000000   0.0000000   0.0000000   0.0000000   0.0000000   0.0000000   0.0000000   0.0000000

  Atom        81          82          83          84          85          86          87          88          89          90
 IAtWgt=           0           0           0           0           0           0           0           0           0           0
 AtmWgt=   0.0000000   0.0000000   0.0000000   0.0000000   0.0000000   0.0000000   0.0000000   0.0000000   0.0000000   0.0000000
 NucSpn=           0           0           0           0           0           0           0           0           0           0
 AtZEff=  -0.0000000  -0.0000000  -0.0000000  -0.0000000  -0.0000000  -0.0000000  -0.0000000  -0.0000000  -0.0000000  -0.0000000
 NQMom=    0.0000000   0.0000000   0.0000000   0.0000000   0.0000000   0.0000000   0.0000000   0.0000000   0.0000000   0.0000000
 NMagM=    0.0000000   0.0000000   0.0000000   0.0000000   0.0000000   0.0000000   0.0000000   0.0000000   0.0000000   0.0000000
 AtZNuc=   0.0000000   0.0000000   0.0000000   0.0000000   0.0000000   0.0000000   0.0000000   0.0000000   0.0000000   0.0000000

  Atom        91          92          93          94          95          96          97          98          99         100
 IAtWgt=           0           0           0           0           0           0           0           0           0           0
 AtmWgt=   0.0000000   0.0000000   0.0000000   0.0000000   0.0000000   0.0000000   0.0000000   0.0000000   0.0000000   0.0000000
 NucSpn=           0           0           0           0           0           0           0           0           0           0
 AtZEff=  -0.0000000  -0.0000000  -0.0000000  -0.0000000  -0.0000000  -0.0000000  -0.0000000  -0.0000000  -0.0000000  -0.0000000
 NQMom=    0.0000000   0.0000000   0.0000000   0.0000000   0.0000000   0.0000000   0.0000000   0.0000000   0.0000000   0.0000000
 NMagM=    0.0000000   0.0000000   0.0000000   0.0000000   0.0000000   0.0000000   0.0000000   0.0000000   0.0000000   0.0000000
 AtZNuc=   0.0000000   0.0000000   0.0000000   0.0000000   0.0000000   0.0000000   0.0000000   0.0000000   0.0000000   0.0000000

  Atom       101         102         103         104         105         106         107         108         109         110
 IAtWgt=           0           0           0           0           0           0           0           0           0           0
 AtmWgt=   0.0000000   0.0000000   0.0000000   0.0000000   0.0000000   0.0000000   0.0000000   0.0000000   0.0000000   0.0000000
 NucSpn=           0           0           0           0           0           0           0           0           0           0
 AtZEff=  -0.0000000  -0.0000000  -0.0000000  -0.0000000  -0.0000000  -0.0000000  -0.0000000  -0.0000000  -0.0000000  -0.0000000
 NQMom=    0.0000000   0.0000000   0.0000000   0.0000000   0.0000000   0.0000000   0.0000000   0.0000000   0.0000000   0.0000000
 NMagM=    0.0000000   0.0000000   0.0000000   0.0000000   0.0000000   0.0000000   0.0000000   0.0000000   0.0000000   0.0000000
 AtZNuc=   0.0000000   0.0000000   0.0000000   0.0000000   0.0000000   0.0000000   0.0000000   0.0000000   0.0000000   0.0000000

  Atom       111         112         113         114         115         116         117         118         119         120
 IAtWgt=           0           0           0           0           0           0           0           0           0           0
 AtmWgt=   0.0000000   0.0000000   0.0000000   0.0000000   0.0000000   0.0000000   0.0000000   0.0000000   0.0000000   0.0000000
 NucSpn=           0           0           0           0           0           0           0           0           0           0
 AtZEff=  -0.0000000  -0.0000000  -0.0000000  -0.0000000  -0.0000000  -0.0000000  -0.0000000  -0.0000000  -0.0000000  -0.0000000
 NQMom=    0.0000000   0.0000000   0.0000000   0.0000000   0.0000000   0.0000000   0.0000000   0.0000000   0.0000000   0.0000000
 NMagM=    0.0000000   0.0000000   0.0000000   0.0000000   0.0000000   0.0000000   0.0000000   0.0000000   0.0000000   0.0000000
 AtZNuc=   0.0000000   0.0000000   0.0000000   0.0000000   0.0000000   0.0000000   0.0000000   0.0000000   0.0000000   0.0000000

  Atom       121         122         123         124         125         126         127         128         129         130
 IAtWgt=           0           0           0           0           0           0           0           0           0           0
 AtmWgt=   0.0000000   0.0000000   0.0000000   0.0000000   0.0000000   0.0000000   0.0000000   0.0000000   0.0000000   0.0000000
 NucSpn=           0           0           0           0           0           0           0           0           0           0
 AtZEff=  -0.0000000  -0.0000000  -0.0000000  -0.0000000  -0.0000000  -0.0000000  -0.0000000  -0.0000000  -0.0000000  -0.0000000
 NQMom=    0.0000000   0.0000000   0.0000000   0.0000000   0.0000000   0.0000000   0.0000000   0.0000000   0.0000000   0.0000000
 NMagM=    0.0000000   0.0000000   0.0000000   0.0000000   0.0000000   0.0000000   0.0000000   0.0000000   0.0000000   0.0000000
 AtZNuc=   0.0000000   0.0000000   0.0000000   0.0000000   0.0000000   0.0000000   0.0000000   0.0000000   0.0000000   0.0000000

  Atom       131         132         133         134         135         136         137         138         139         140
 IAtWgt=           0           0           0           0           0           0           0           0           0           0
 AtmWgt=   0.0000000   0.0000000   0.0000000   0.0000000   0.0000000   0.0000000   0.0000000   0.0000000   0.0000000   0.0000000
 NucSpn=           0           0           0           0           0           0           0           0           0           0
 AtZEff=  -0.0000000  -0.0000000  -0.0000000  -0.0000000  -0.0000000  -0.0000000  -0.0000000  -0.0000000  -0.0000000  -0.0000000
 NQMom=    0.0000000   0.0000000   0.0000000   0.0000000   0.0000000   0.0000000   0.0000000   0.0000000   0.0000000   0.0000000
 NMagM=    0.0000000   0.0000000   0.0000000   0.0000000   0.0000000   0.0000000   0.0000000   0.0000000   0.0000000   0.0000000
 AtZNuc=   0.0000000   0.0000000   0.0000000   0.0000000   0.0000000   0.0000000   0.0000000   0.0000000   0.0000000   0.0000000

  Atom       141         142         143         144         145         146         147         148         149         150
 IAtWgt=           0           0           0           0           0           0           0           0           0           0
 AtmWgt=   0.0000000   0.0000000   0.0000000   0.0000000   0.0000000   0.0000000   0.0000000   0.0000000   0.0000000   0.0000000
 NucSpn=           0           0           0           0           0           0           0           0           0           0
 AtZEff=  -0.0000000  -0.0000000  -0.0000000  -0.0000000  -0.0000000  -0.0000000  -0.0000000  -0.0000000  -0.0000000  -0.0000000
 NQMom=    0.0000000   0.0000000   0.0000000   0.0000000   0.0000000   0.0000000   0.0000000   0.0000000   0.0000000   0.0000000
 NMagM=    0.0000000   0.0000000   0.0000000   0.0000000   0.0000000   0.0000000   0.0000000   0.0000000   0.0000000   0.0000000
 AtZNuc=   0.0000000   0.0000000   0.0000000   0.0000000   0.0000000   0.0000000   0.0000000   0.0000000   0.0000000   0.0000000

  Atom       151         152         153         154         155         156         157         158         159         160
 IAtWgt=           0           0           0           0           0           0           0           0           0           0
 AtmWgt=   0.0000000   0.0000000   0.0000000   0.0000000   0.0000000   0.0000000   0.0000000   0.0000000   0.0000000   0.0000000
 NucSpn=           0           0           0           0           0           0           0           0           0           0
 AtZEff=  -0.0000000  -0.0000000  -0.0000000  -0.0000000  -0.0000000  -0.0000000  -0.0000000  -0.0000000  -0.0000000  -0.0000000
 NQMom=    0.0000000   0.0000000   0.0000000   0.0000000   0.0000000   0.0000000   0.0000000   0.0000000   0.0000000   0.0000000
 NMagM=    0.0000000   0.0000000   0.0000000   0.0000000   0.0000000   0.0000000   0.0000000   0.0000000   0.0000000   0.0000000
 AtZNuc=   0.0000000   0.0000000   0.0000000   0.0000000   0.0000000   0.0000000   0.0000000   0.0000000   0.0000000   0.0000000

  Atom       161         162         163         164         165         166         167         168         169         170
 IAtWgt=           0           0           0           0           0           0           0           0           0           0
 AtmWgt=   0.0000000   0.0000000   0.0000000   0.0000000   0.0000000   0.0000000   0.0000000   0.0000000   0.0000000   0.0000000
 NucSpn=           0           0           0           0           0           0           0           0           0           0
 AtZEff=  -0.0000000  -0.0000000  -0.0000000  -0.0000000  -0.0000000  -0.0000000  -0.0000000  -0.0000000  -0.0000000  -0.0000000
 NQMom=    0.0000000   0.0000000   0.0000000   0.0000000   0.0000000   0.0000000   0.0000000   0.0000000   0.0000000   0.0000000
 NMagM=    0.0000000   0.0000000   0.0000000   0.0000000   0.0000000   0.0000000   0.0000000   0.0000000   0.0000000   0.0000000
 AtZNuc=   0.0000000   0.0000000   0.0000000   0.0000000   0.0000000   0.0000000   0.0000000   0.0000000   0.0000000   0.0000000

  Atom       171         172         173         174         175         176         177         178         179         180
 IAtWgt=           0           0           0           0           0           0           0           0           0           0
 AtmWgt=   0.0000000   0.0000000   0.0000000   0.0000000   0.0000000   0.0000000   0.0000000   0.0000000   0.0000000   0.0000000
 NucSpn=           0           0           0           0           0           0           0           0           0           0
 AtZEff=  -0.0000000  -0.0000000  -0.0000000  -0.0000000  -0.0000000  -0.0000000  -0.0000000  -0.0000000  -0.0000000  -0.0000000
 NQMom=    0.0000000   0.0000000   0.0000000   0.0000000   0.0000000   0.0000000   0.0000000   0.0000000   0.0000000   0.0000000
 NMagM=    0.0000000   0.0000000   0.0000000   0.0000000   0.0000000   0.0000000   0.0000000   0.0000000   0.0000000   0.0000000
 AtZNuc=   0.0000000   0.0000000   0.0000000   0.0000000   0.0000000   0.0000000   0.0000000   0.0000000   0.0000000   0.0000000

  Atom       181         182         183         184         185         186         187         188         189         190
 IAtWgt=           0           0           0           0           0           0           0           0           0           0
 AtmWgt=   0.0000000   0.0000000   0.0000000   0.0000000   0.0000000   0.0000000   0.0000000   0.0000000   0.0000000   0.0000000
 NucSpn=           0           0           0           0           0           0           0           0           0           0
 AtZEff=  -0.0000000  -0.0000000  -0.0000000  -0.0000000  -0.0000000  -0.0000000  -0.0000000  -0.0000000  -0.0000000  -0.0000000
 NQMom=    0.0000000   0.0000000   0.0000000   0.0000000   0.0000000   0.0000000   0.0000000   0.0000000   0.0000000   0.0000000
 NMagM=    0.0000000   0.0000000   0.0000000   0.0000000   0.0000000   0.0000000   0.0000000   0.0000000   0.0000000   0.0000000
 AtZNuc=   0.0000000   0.0000000   0.0000000   0.0000000   0.0000000   0.0000000   0.0000000   0.0000000   0.0000000   0.0000000

  Atom       191         192         193         194         195         196         197         198         199         200
 IAtWgt=           0           0           0           0           0           0           0           0           0           0
 AtmWgt=   0.0000000   0.0000000   0.0000000   0.0000000   0.0000000   0.0000000   0.0000000   0.0000000   0.0000000   0.0000000
 NucSpn=           0           0           0           0           0           0           0           0           0           0
 AtZEff=  -0.0000000  -0.0000000  -0.0000000  -0.0000000  -0.0000000  -0.0000000  -0.0000000  -0.0000000  -0.0000000  -0.0000000
 NQMom=    0.0000000   0.0000000   0.0000000   0.0000000   0.0000000   0.0000000   0.0000000   0.0000000   0.0000000   0.0000000
 NMagM=    0.0000000   0.0000000   0.0000000   0.0000000   0.0000000   0.0000000   0.0000000   0.0000000   0.0000000   0.0000000
 AtZNuc=   0.0000000   0.0000000   0.0000000   0.0000000   0.0000000   0.0000000   0.0000000   0.0000000   0.0000000   0.0000000

  Atom       201         202         203         204         205         206         207         208         209         210
 IAtWgt=           0           0           0           0           0           0           0           0           0           0
 AtmWgt=   0.0000000   0.0000000   0.0000000   0.0000000   0.0000000   0.0000000   0.0000000   0.0000000   0.0000000   0.0000000
 NucSpn=           0           0           0           0           0           0           0           0           0           0
 AtZEff=  -0.0000000  -0.0000000  -0.0000000  -0.0000000  -0.0000000  -0.0000000  -0.0000000  -0.0000000  -0.0000000  -0.0000000
 NQMom=    0.0000000   0.0000000   0.0000000   0.0000000   0.0000000   0.0000000   0.0000000   0.0000000   0.0000000   0.0000000
 NMagM=    0.0000000   0.0000000   0.0000000   0.0000000   0.0000000   0.0000000   0.0000000   0.0000000   0.0000000   0.0000000
 AtZNuc=   0.0000000   0.0000000   0.0000000   0.0000000   0.0000000   0.0000000   0.0000000   0.0000000   0.0000000   0.0000000

  Atom       211         212         213         214         215         216         217         218         219         220
 IAtWgt=           0           0           0           0           0           0           0           0           0           0
 AtmWgt=   0.0000000   0.0000000   0.0000000   0.0000000   0.0000000   0.0000000   0.0000000   0.0000000   0.0000000   0.0000000
 NucSpn=           0           0           0           0           0           0           0           0           0           0
 AtZEff=  -0.0000000  -0.0000000  -0.0000000  -0.0000000  -0.0000000  -0.0000000  -0.0000000  -0.0000000  -0.0000000  -0.0000000
 NQMom=    0.0000000   0.0000000   0.0000000   0.0000000   0.0000000   0.0000000   0.0000000   0.0000000   0.0000000   0.0000000
 NMagM=    0.0000000   0.0000000   0.0000000   0.0000000   0.0000000   0.0000000   0.0000000   0.0000000   0.0000000   0.0000000
 AtZNuc=   0.0000000   0.0000000   0.0000000   0.0000000   0.0000000   0.0000000   0.0000000   0.0000000   0.0000000   0.0000000

  Atom       221         222         223         224         225         226         227         228         229         230
 IAtWgt=           0           0           0           0           0           0           0           0           0           0
 AtmWgt=   0.0000000   0.0000000   0.0000000   0.0000000   0.0000000   0.0000000   0.0000000   0.0000000   0.0000000   0.0000000
 NucSpn=           0           0           0           0           0           0           0           0           0           0
 AtZEff=  -0.0000000  -0.0000000  -0.0000000  -0.0000000  -0.0000000  -0.0000000  -0.0000000  -0.0000000  -0.0000000  -0.0000000
 NQMom=    0.0000000   0.0000000   0.0000000   0.0000000   0.0000000   0.0000000   0.0000000   0.0000000   0.0000000   0.0000000
 NMagM=    0.0000000   0.0000000   0.0000000   0.0000000   0.0000000   0.0000000   0.0000000   0.0000000   0.0000000   0.0000000
 AtZNuc=   0.0000000   0.0000000   0.0000000   0.0000000   0.0000000   0.0000000   0.0000000   0.0000000   0.0000000   0.0000000

  Atom       231         232         233         234         235         236         237         238         239         240
 IAtWgt=           0           0           0           0           0           0           0           0           0           0
 AtmWgt=   0.0000000   0.0000000   0.0000000   0.0000000   0.0000000   0.0000000   0.0000000   0.0000000   0.0000000   0.0000000
 NucSpn=           0           0           0           0           0           0           0           0           0           0
 AtZEff=  -0.0000000  -0.0000000  -0.0000000  -0.0000000  -0.0000000  -0.0000000  -0.0000000  -0.0000000  -0.0000000  -0.0000000
 NQMom=    0.0000000   0.0000000   0.0000000   0.0000000   0.0000000   0.0000000   0.0000000   0.0000000   0.0000000   0.0000000
 NMagM=    0.0000000   0.0000000   0.0000000   0.0000000   0.0000000   0.0000000   0.0000000   0.0000000   0.0000000   0.0000000
 AtZNuc=   0.0000000   0.0000000   0.0000000   0.0000000   0.0000000   0.0000000   0.0000000   0.0000000   0.0000000   0.0000000

  Atom       241         242         243         244         245         246         247         248         249         250
 IAtWgt=           0           0           0           0           0           0           0           0           0           0
 AtmWgt=   0.0000000   0.0000000   0.0000000   0.0000000   0.0000000   0.0000000   0.0000000   0.0000000   0.0000000   0.0000000
 NucSpn=           0           0           0           0           0           0           0           0           0           0
 AtZEff=  -0.0000000  -0.0000000  -0.0000000  -0.0000000  -0.0000000  -0.0000000  -0.0000000  -0.0000000  -0.0000000  -0.0000000
 NQMom=    0.0000000   0.0000000   0.0000000   0.0000000   0.0000000   0.0000000   0.0000000   0.0000000   0.0000000   0.0000000
 NMagM=    0.0000000   0.0000000   0.0000000   0.0000000   0.0000000   0.0000000   0.0000000   0.0000000   0.0000000   0.0000000
 AtZNuc=   0.0000000   0.0000000   0.0000000   0.0000000   0.0000000   0.0000000   0.0000000   0.0000000   0.0000000   0.0000000

  Atom       251         252         253         254         255         256         257         258         259         260
 IAtWgt=           0           0           0           0           0           0           0           0           0           0
 AtmWgt=   0.0000000   0.0000000   0.0000000   0.0000000   0.0000000   0.0000000   0.0000000   0.0000000   0.0000000   0.0000000
 NucSpn=           0           0           0           0           0           0           0           0           0           0
 AtZEff=  -0.0000000  -0.0000000  -0.0000000  -0.0000000  -0.0000000  -0.0000000  -0.0000000  -0.0000000  -0.0000000  -0.0000000
 NQMom=    0.0000000   0.0000000   0.0000000   0.0000000   0.0000000   0.0000000   0.0000000   0.0000000   0.0000000   0.0000000
 NMagM=    0.0000000   0.0000000   0.0000000   0.0000000   0.0000000   0.0000000   0.0000000   0.0000000   0.0000000   0.0000000
 AtZNuc=   0.0000000   0.0000000   0.0000000   0.0000000   0.0000000   0.0000000   0.0000000   0.0000000   0.0000000   0.0000000

  Atom       261         262         263         264         265         266         267         268         269         270
 IAtWgt=           0           0           0           0           0           0           0           0           0           0
 AtmWgt=   0.0000000   0.0000000   0.0000000   0.0000000   0.0000000   0.0000000   0.0000000   0.0000000   0.0000000   0.0000000
 NucSpn=           0           0           0           0           0           0           0           0           0           0
 AtZEff=  -0.0000000  -0.0000000  -0.0000000  -0.0000000  -0.0000000  -0.0000000  -0.0000000  -0.0000000  -0.0000000  -0.0000000
 NQMom=    0.0000000   0.0000000   0.0000000   0.0000000   0.0000000   0.0000000   0.0000000   0.0000000   0.0000000   0.0000000
 NMagM=    0.0000000   0.0000000   0.0000000   0.0000000   0.0000000   0.0000000   0.0000000   0.0000000   0.0000000   0.0000000
 AtZNuc=   0.0000000   0.0000000   0.0000000   0.0000000   0.0000000   0.0000000   0.0000000   0.0000000   0.0000000   0.0000000

  Atom       271         272         273         274         275         276         277         278         279         280
 IAtWgt=           0           0           0           0           0           0           0           0           0           0
 AtmWgt=   0.0000000   0.0000000   0.0000000   0.0000000   0.0000000   0.0000000   0.0000000   0.0000000   0.0000000   0.0000000
 NucSpn=           0           0           0           0           0           0           0           0           0           0
 AtZEff=  -0.0000000  -0.0000000  -0.0000000  -0.0000000  -0.0000000  -0.0000000  -0.0000000  -0.0000000  -0.0000000  -0.0000000
 NQMom=    0.0000000   0.0000000   0.0000000   0.0000000   0.0000000   0.0000000   0.0000000   0.0000000   0.0000000   0.0000000
 NMagM=    0.0000000   0.0000000   0.0000000   0.0000000   0.0000000   0.0000000   0.0000000   0.0000000   0.0000000   0.0000000
 AtZNuc=   0.0000000   0.0000000   0.0000000   0.0000000   0.0000000   0.0000000   0.0000000   0.0000000   0.0000000   0.0000000

  Atom       281         282         283         284         285         286         287         288         289         290
 IAtWgt=           0           0           0           0           0           0           0           0           0           0
 AtmWgt=   0.0000000   0.0000000   0.0000000   0.0000000   0.0000000   0.0000000   0.0000000   0.0000000   0.0000000   0.0000000
 NucSpn=           0           0           0           0           0           0           0           0           0           0
 AtZEff=  -0.0000000  -0.0000000  -0.0000000  -0.0000000  -0.0000000  -0.0000000  -0.0000000  -0.0000000  -0.0000000  -0.0000000
 NQMom=    0.0000000   0.0000000   0.0000000   0.0000000   0.0000000   0.0000000   0.0000000   0.0000000   0.0000000   0.0000000
 NMagM=    0.0000000   0.0000000   0.0000000   0.0000000   0.0000000   0.0000000   0.0000000   0.0000000   0.0000000   0.0000000
 AtZNuc=   0.0000000   0.0000000   0.0000000   0.0000000   0.0000000   0.0000000   0.0000000   0.0000000   0.0000000   0.0000000

  Atom       291         292         293         294         295         296         297         298         299         300
 IAtWgt=           0           0           0           0           0           0           0           0           0           0
 AtmWgt=   0.0000000   0.0000000   0.0000000   0.0000000   0.0000000   0.0000000   0.0000000   0.0000000   0.0000000   0.0000000
 NucSpn=           0           0           0           0           0           0           0           0           0           0
 AtZEff=  -0.0000000  -0.0000000  -0.0000000  -0.0000000  -0.0000000  -0.0000000  -0.0000000  -0.0000000  -0.0000000  -0.0000000
 NQMom=    0.0000000   0.0000000   0.0000000   0.0000000   0.0000000   0.0000000   0.0000000   0.0000000   0.0000000   0.0000000
 NMagM=    0.0000000   0.0000000   0.0000000   0.0000000   0.0000000   0.0000000   0.0000000   0.0000000   0.0000000   0.0000000
 AtZNuc=   0.0000000   0.0000000   0.0000000   0.0000000   0.0000000   0.0000000   0.0000000   0.0000000   0.0000000   0.0000000

  Atom       301         302         303         304         305         306         307         308         309         310
 IAtWgt=           0           0           0           0           0           0           0           0           0           0
 AtmWgt=   0.0000000   0.0000000   0.0000000   0.0000000   0.0000000   0.0000000   0.0000000   0.0000000   0.0000000   0.0000000
 NucSpn=           0           0           0           0           0           0           0           0           0           0
 AtZEff=  -0.0000000  -0.0000000  -0.0000000  -0.0000000  -0.0000000  -0.0000000  -0.0000000  -0.0000000  -0.0000000  -0.0000000
 NQMom=    0.0000000   0.0000000   0.0000000   0.0000000   0.0000000   0.0000000   0.0000000   0.0000000   0.0000000   0.0000000
 NMagM=    0.0000000   0.0000000   0.0000000   0.0000000   0.0000000   0.0000000   0.0000000   0.0000000   0.0000000   0.0000000
 AtZNuc=   0.0000000   0.0000000   0.0000000   0.0000000   0.0000000   0.0000000   0.0000000   0.0000000   0.0000000   0.0000000

  Atom       311         312         313         314         315         316         317         318         319         320
 IAtWgt=           0           0           0           0           0           0           0           0           0           0
 AtmWgt=   0.0000000   0.0000000   0.0000000   0.0000000   0.0000000   0.0000000   0.0000000   0.0000000   0.0000000   0.0000000
 NucSpn=           0           0           0           0           0           0           0           0           0           0
 AtZEff=  -0.0000000  -0.0000000  -0.0000000  -0.0000000  -0.0000000  -0.0000000  -0.0000000  -0.0000000  -0.0000000  -0.0000000
 NQMom=    0.0000000   0.0000000   0.0000000   0.0000000   0.0000000   0.0000000   0.0000000   0.0000000   0.0000000   0.0000000
 NMagM=    0.0000000   0.0000000   0.0000000   0.0000000   0.0000000   0.0000000   0.0000000   0.0000000   0.0000000   0.0000000
 AtZNuc=   0.0000000   0.0000000   0.0000000   0.0000000   0.0000000   0.0000000   0.0000000   0.0000000   0.0000000   0.0000000

  Atom       321         322         323         324         325         326         327         328         329         330
 IAtWgt=           0           0           0           0           0           0           0           0           0           0
 AtmWgt=   0.0000000   0.0000000   0.0000000   0.0000000   0.0000000   0.0000000   0.0000000   0.0000000   0.0000000   0.0000000
 NucSpn=           0           0           0           0           0           0           0           0           0           0
 AtZEff=  -0.0000000  -0.0000000  -0.0000000  -0.0000000  -0.0000000  -0.0000000  -0.0000000  -0.0000000  -0.0000000  -0.0000000
 NQMom=    0.0000000   0.0000000   0.0000000   0.0000000   0.0000000   0.0000000   0.0000000   0.0000000   0.0000000   0.0000000
 NMagM=    0.0000000   0.0000000   0.0000000   0.0000000   0.0000000   0.0000000   0.0000000   0.0000000   0.0000000   0.0000000
 AtZNuc=   0.0000000   0.0000000   0.0000000   0.0000000   0.0000000   0.0000000   0.0000000   0.0000000   0.0000000   0.0000000

  Atom       331         332         333         334         335
 IAtWgt=           0           0           0           0           0
 AtmWgt=   0.0000000   0.0000000   0.0000000   0.0000000   0.0000000
 NucSpn=           0           0           0           0           0
 AtZEff=  -0.0000000  -0.0000000  -0.0000000  -0.0000000  -0.0000000
 NQMom=    0.0000000   0.0000000   0.0000000   0.0000000   0.0000000
 NMagM=    0.0000000   0.0000000   0.0000000   0.0000000   0.0000000
 AtZNuc=   0.0000000   0.0000000   0.0000000   0.0000000   0.0000000
 Leave Link  101 at Tue Dec 12 09:53:24 2023, MaxMem=  1342177280 cpu:               1.7 elap:               0.2
 (Enter /home/wangzhe/g16/l202.exe)
 Symmetry turned off:
 Cannot cope with ghost atoms or with translation vectors.
 Stoichiometry    C18H14
 Framework group  C1[X(C18H14)]
 NumDoF:  NAt=    32 NAtoms=   335
 Deg. of freedom     0
 Full point group                 C1      NOp   1
                          Input orientation:                          
 ---------------------------------------------------------------------
 Center     Atomic      Atomic             Coordinates (Angstroms)
 Number     Number       Type             X           Y           Z
 ---------------------------------------------------------------------
      1          1           0       -1.479000    0.028000   -0.643000
      2          6           0       -0.886000    0.208000    0.251000
      3          6           0        0.585000    0.709000    2.562000
      4          6           0        0.009000   -0.773000    0.711000
      5          6           0       -1.043000    1.417000    0.933000
      6          6           0       -0.307000    1.667000    2.088000
      7          6           0        0.741000   -0.500000    1.879000
      8          1           0       -1.744000    2.161000    0.562000
      9          1           0       -0.430000    2.608000    2.619000
     10          1           0        1.452000   -1.231000    2.260000
     11          1           0        1.163000    0.902000    3.462000
     12          6           0        0.174000   -2.047000   -0.008000
     13          6           0        0.486000   -4.486000   -1.375000
     14          6           0        0.486000   -2.070000   -1.375000
     15          6           0        0.023000   -3.278000    0.657000
     16          6           0        0.174000   -4.509000   -0.008000
     17          6           0        0.641000   -3.278000   -2.055000
     18          1           0        0.623000   -1.138000   -1.920000
     19          1           0       -0.242000   -3.278000    1.714000
     20          1           0        0.889000   -3.278000   -3.113000
     21          1           0        0.623000   -5.418000   -1.920000
     22          6           0        0.009000   -5.783000    0.711000
     23          6           0       -0.307000   -8.223000    2.088000
     24          6           0       -0.886000   -6.764000    0.251000
     25          6           0        0.741000   -6.056000    1.879000
     26          6           0        0.585000   -7.265000    2.562000
     27          6           0       -1.043000   -7.973000    0.933000
     28          1           0       -1.479000   -6.584000   -0.643000
     29          1           0        1.452000   -5.325000    2.260000
     30          1           0        1.163000   -7.457000    3.462000
     31          1           0       -1.744000   -8.717000    0.562000
     32          1           0       -0.430000   -9.163000    2.619000
     33          0           0       -7.436456   -3.603028    6.921708
     34          0           0       -7.290730   -3.521875    6.811354
     35          0           0       -7.145004   -3.440721    6.701000
     36          0           0       -6.999278   -3.359567    6.590646
     37          0           0       -6.853552   -3.278413    6.480292
     38          0           0       -6.707827   -3.197259    6.369937
     39          0           0       -6.562101   -3.116105    6.259583
     40          0           0       -6.416375   -3.034951    6.149229
     41          0           0       -6.270649   -2.953797    6.038875
     42          0           0       -6.124924   -2.872643    5.928521
     43          0           0       -5.979198   -2.791489    5.818167
     44          0           0       -5.833472   -2.710336    5.707812
     45          0           0       -5.687746   -2.629182    5.597458
     46          0           0       -5.542020   -2.548028    5.487104
     47          0           0       -5.396295   -2.466874    5.376750
     48          0           0       -5.250569   -2.385720    5.266396
     49          0           0       -5.104843   -2.304566    5.156042
     50          0           0       -4.959117   -2.223412    5.045687
     51          0           0       -4.813392   -2.142258    4.935333
     52          0           0       -4.667666   -2.061104    4.824979
     53          0           0       -4.521940   -1.979950    4.714625
     54          0           0       -4.376214   -1.898797    4.604271
     55          0           0       -4.230488   -1.817643    4.493917
     56          0           0       -4.084763   -1.736489    4.383562
     57          0           0       -3.939037   -1.655335    4.273208
     58          0           0       -3.793311   -1.574181    4.162854
     59          0           0       -3.647585   -1.493027    4.052500
     60          0           0       -3.501860   -1.411873    3.942146
     61          0           0       -3.356134   -1.330719    3.831792
     62          0           0       -3.210408   -1.249565    3.721437
     63          0           0       -3.064682   -1.168411    3.611083
     64          0           0       -2.918956   -1.087257    3.500729
     65          0           0       -2.773231   -1.006104    3.390375
     66          0           0       -2.627505   -0.924950    3.280021
     67          0           0       -2.481779   -0.843796    3.169667
     68          0           0       -2.336053   -0.762642    3.059312
     69          0           0       -2.190328   -0.681488    2.948958
     70          0           0       -2.044602   -0.600334    2.838604
     71          0           0       -1.898876   -0.519180    2.728250
     72          0           0       -1.753150   -0.438026    2.617896
     73          0           0       -1.607424   -0.356872    2.507542
     74          0           0       -1.461699   -0.275718    2.397187
     75          0           0       -1.315973   -0.194565    2.286833
     76          0           0       -1.170247   -0.113411    2.176479
     77          0           0       -1.024521   -0.032257    2.066125
     78          0           0       -0.878796    0.048897    1.955771
     79          0           0       -0.733070    0.130051    1.845417
     80          0           0       -0.587344    0.211205    1.735062
     81          0           0       -0.441618    0.292359    1.624708
     82          0           0       -0.295892    0.373513    1.514354
     83          0           0       -0.150167    0.454667    1.404000
     84          0           0       -0.004441    0.535821    1.293646
     85          0           0        0.141285    0.616974    1.183292
     86          0           0        0.287011    0.698128    1.072938
     87          0           0        0.432736    0.779282    0.962583
     88          0           0        0.578462    0.860436    0.852229
     89          0           0        0.724188    0.941590    0.741875
     90          0           0        0.869914    1.022744    0.631521
     91          0           0        1.015640    1.103898    0.521167
     92          0           0        1.161365    1.185052    0.410813
     93          0           0        1.307091    1.266206    0.300458
     94          0           0        1.452817    1.347360    0.190104
     95          0           0        1.598543    1.428513    0.079750
     96          0           0        1.744268    1.509667   -0.030604
     97          0           0        1.889994    1.590821   -0.140958
     98          0           0        2.035720    1.671975   -0.251312
     99          0           0        2.181446    1.753129   -0.361667
    100          0           0        2.327172    1.834283   -0.472021
    101          0           0        2.472897    1.915437   -0.582375
    102          0           0        2.618623    1.996591   -0.692729
    103          0           0        2.764349    2.077745   -0.803083
    104          0           0        2.910075    2.158899   -0.913437
    105          0           0        3.055800    2.240053   -1.023792
    106          0           0        3.201526    2.321206   -1.134146
    107          0           0        3.347252    2.402360   -1.244500
    108          0           0        3.492978    2.483514   -1.354854
    109          0           0        3.638704    2.564668   -1.465208
    110          0           0        3.784429    2.645822   -1.575562
    111          0           0        3.930155    2.726976   -1.685917
    112          0           0        4.075881    2.808130   -1.796271
    113          0           0        4.221607    2.889284   -1.906625
    114          0           0        4.367332    2.970438   -2.016979
    115          0           0        4.513058    3.051592   -2.127333
    116          0           0        4.658784    3.132745   -2.237687
    117          0           0        4.804510    3.213899   -2.348042
    118          0           0        4.950236    3.295053   -2.458396
    119          0           0        5.095961    3.376207   -2.568750
    120          0           0        5.241687    3.457361   -2.679104
    121          0           0        5.387413    3.538515   -2.789458
    122          0           0        5.533139    3.619669   -2.899812
    123          0           0        5.678864    3.700823   -3.010167
    124          0           0        5.824590    3.781977   -3.120521
    125          0           0        5.970316    3.863131   -3.230875
    126          0           0        6.116042    3.944284   -3.341229
    127          0           0        6.261768    4.025438   -3.451583
    128          0           0        6.407493    4.106592   -3.561937
    129          0           0        6.553219    4.187746   -3.672292
    130          0           0        6.698945    4.268900   -3.782646
    131          0           0        6.844671    4.350054   -3.893000
    132          0           0        6.990396    4.431208   -4.003354
    133          0           0        7.136122    4.512362   -4.113708
    134          0           0       -9.419130   -3.278000   -2.916939
    135          0           0       -9.224135   -3.278000   -2.872480
    136          0           0       -9.029139   -3.278000   -2.828021
    137          0           0       -8.834143   -3.278000   -2.783562
    138          0           0       -8.639147   -3.278000   -2.739104
    139          0           0       -8.444151   -3.278000   -2.694645
    140          0           0       -8.249155   -3.278000   -2.650186
    141          0           0       -8.054159   -3.278000   -2.605727
    142          0           0       -7.859163   -3.278000   -2.561268
    143          0           0       -7.664167   -3.278000   -2.516810
    144          0           0       -7.469171   -3.278000   -2.472351
    145          0           0       -7.274175   -3.278000   -2.427892
    146          0           0       -7.079179   -3.278000   -2.383433
    147          0           0       -6.884183   -3.278000   -2.338975
    148          0           0       -6.689187   -3.278000   -2.294516
    149          0           0       -6.494191   -3.278000   -2.250057
    150          0           0       -6.299195   -3.278000   -2.205598
    151          0           0       -6.104199   -3.278000   -2.161139
    152          0           0       -5.909203   -3.278000   -2.116681
    153          0           0       -5.714208   -3.278000   -2.072222
    154          0           0       -5.519212   -3.278000   -2.027763
    155          0           0       -5.324216   -3.278000   -1.983304
    156          0           0       -5.129220   -3.278000   -1.938846
    157          0           0       -4.934224   -3.278000   -1.894387
    158          0           0       -4.739228   -3.278000   -1.849928
    159          0           0       -4.544232   -3.278000   -1.805469
    160          0           0       -4.349236   -3.278000   -1.761011
    161          0           0       -4.154240   -3.278000   -1.716552
    162          0           0       -3.959244   -3.278000   -1.672093
    163          0           0       -3.764248   -3.278000   -1.627634
    164          0           0       -3.569252   -3.278000   -1.583175
    165          0           0       -3.374256   -3.278000   -1.538717
    166          0           0       -3.179260   -3.278000   -1.494258
    167          0           0       -2.984264   -3.278000   -1.449799
    168          0           0       -2.789268   -3.278000   -1.405340
    169          0           0       -2.594272   -3.278000   -1.360882
    170          0           0       -2.399277   -3.278000   -1.316423
    171          0           0       -2.204281   -3.278000   -1.271964
    172          0           0       -2.009285   -3.278000   -1.227505
    173          0           0       -1.814289   -3.278000   -1.183046
    174          0           0       -1.619293   -3.278000   -1.138588
    175          0           0       -1.424297   -3.278000   -1.094129
    176          0           0       -1.229301   -3.278000   -1.049670
    177          0           0       -1.034305   -3.278000   -1.005211
    178          0           0       -0.839309   -3.278000   -0.960753
    179          0           0       -0.644313   -3.278000   -0.916294
    180          0           0       -0.449317   -3.278000   -0.871835
    181          0           0       -0.254321   -3.278000   -0.827376
    182          0           0       -0.059325   -3.278000   -0.782918
    183          0           0        0.135671   -3.278000   -0.738459
    184          0           0        0.330667   -3.278000   -0.694000
    185          0           0        0.525663   -3.278000   -0.649541
    186          0           0        0.720659   -3.278000   -0.605082
    187          0           0        0.915654   -3.278000   -0.560624
    188          0           0        1.110650   -3.278000   -0.516165
    189          0           0        1.305646   -3.278000   -0.471706
    190          0           0        1.500642   -3.278000   -0.427247
    191          0           0        1.695638   -3.278000   -0.382789
    192          0           0        1.890634   -3.278000   -0.338330
    193          0           0        2.085630   -3.278000   -0.293871
    194          0           0        2.280626   -3.278000   -0.249412
    195          0           0        2.475622   -3.278000   -0.204954
    196          0           0        2.670618   -3.278000   -0.160495
    197          0           0        2.865614   -3.278000   -0.116036
    198          0           0        3.060610   -3.278000   -0.071577
    199          0           0        3.255606   -3.278000   -0.027118
    200          0           0        3.450602   -3.278000    0.017340
    201          0           0        3.645598   -3.278000    0.061799
    202          0           0        3.840594   -3.278000    0.106258
    203          0           0        4.035590   -3.278000    0.150717
    204          0           0        4.230586   -3.278000    0.195175
    205          0           0        4.425581   -3.278000    0.239634
    206          0           0        4.620577   -3.278000    0.284093
    207          0           0        4.815573   -3.278000    0.328552
    208          0           0        5.010569   -3.278000    0.373011
    209          0           0        5.205565   -3.278000    0.417469
    210          0           0        5.400561   -3.278000    0.461928
    211          0           0        5.595557   -3.278000    0.506387
    212          0           0        5.790553   -3.278000    0.550846
    213          0           0        5.985549   -3.278000    0.595304
    214          0           0        6.180545   -3.278000    0.639763
    215          0           0        6.375541   -3.278000    0.684222
    216          0           0        6.570537   -3.278000    0.728681
    217          0           0        6.765533   -3.278000    0.773139
    218          0           0        6.960529   -3.278000    0.817598
    219          0           0        7.155525   -3.278000    0.862057
    220          0           0        7.350521   -3.278000    0.906516
    221          0           0        7.545517   -3.278000    0.950975
    222          0           0        7.740512   -3.278000    0.995433
    223          0           0        7.935508   -3.278000    1.039892
    224          0           0        8.130504   -3.278000    1.084351
    225          0           0        8.325500   -3.278000    1.128810
    226          0           0        8.520496   -3.278000    1.173268
    227          0           0        8.715492   -3.278000    1.217727
    228          0           0        8.910488   -3.278000    1.262186
    229          0           0        9.105484   -3.278000    1.306645
    230          0           0        9.300480   -3.278000    1.351104
    231          0           0        9.495476   -3.278000    1.395562
    232          0           0        9.690472   -3.278000    1.440021
    233          0           0        9.885468   -3.278000    1.484480
    234          0           0       10.080464   -3.278000    1.528939
    235          0           0       -7.436456   -2.952972    6.921708
    236          0           0       -7.290730   -3.034125    6.811354
    237          0           0       -7.145004   -3.115279    6.701000
    238          0           0       -6.999278   -3.196433    6.590646
    239          0           0       -6.853552   -3.277587    6.480292
    240          0           0       -6.707827   -3.358741    6.369937
    241          0           0       -6.562101   -3.439895    6.259583
    242          0           0       -6.416375   -3.521049    6.149229
    243          0           0       -6.270649   -3.602203    6.038875
    244          0           0       -6.124924   -3.683357    5.928521
    245          0           0       -5.979198   -3.764511    5.818167
    246          0           0       -5.833472   -3.845664    5.707812
    247          0           0       -5.687746   -3.926818    5.597458
    248          0           0       -5.542020   -4.007972    5.487104
    249          0           0       -5.396295   -4.089126    5.376750
    250          0           0       -5.250569   -4.170280    5.266396
    251          0           0       -5.104843   -4.251434    5.156042
    252          0           0       -4.959117   -4.332588    5.045687
    253          0           0       -4.813392   -4.413742    4.935333
    254          0           0       -4.667666   -4.494896    4.824979
    255          0           0       -4.521940   -4.576050    4.714625
    256          0           0       -4.376214   -4.657203    4.604271
    257          0           0       -4.230488   -4.738357    4.493917
    258          0           0       -4.084763   -4.819511    4.383562
    259          0           0       -3.939037   -4.900665    4.273208
    260          0           0       -3.793311   -4.981819    4.162854
    261          0           0       -3.647585   -5.062973    4.052500
    262          0           0       -3.501860   -5.144127    3.942146
    263          0           0       -3.356134   -5.225281    3.831792
    264          0           0       -3.210408   -5.306435    3.721437
    265          0           0       -3.064682   -5.387589    3.611083
    266          0           0       -2.918956   -5.468743    3.500729
    267          0           0       -2.773231   -5.549896    3.390375
    268          0           0       -2.627505   -5.631050    3.280021
    269          0           0       -2.481779   -5.712204    3.169667
    270          0           0       -2.336053   -5.793358    3.059312
    271          0           0       -2.190328   -5.874512    2.948958
    272          0           0       -2.044602   -5.955666    2.838604
    273          0           0       -1.898876   -6.036820    2.728250
    274          0           0       -1.753150   -6.117974    2.617896
    275          0           0       -1.607424   -6.199128    2.507542
    276          0           0       -1.461699   -6.280282    2.397187
    277          0           0       -1.315973   -6.361435    2.286833
    278          0           0       -1.170247   -6.442589    2.176479
    279          0           0       -1.024521   -6.523743    2.066125
    280          0           0       -0.878796   -6.604897    1.955771
    281          0           0       -0.733070   -6.686051    1.845417
    282          0           0       -0.587344   -6.767205    1.735062
    283          0           0       -0.441618   -6.848359    1.624708
    284          0           0       -0.295892   -6.929513    1.514354
    285          0           0       -0.150167   -7.010667    1.404000
[...]
    27  C   -0.000380
    33  Bq   0.000000
    34  Bq   0.000000
    35  Bq   0.000000
    36  Bq   0.000000
    37  Bq   0.000000
    38  Bq   0.000000
    39  Bq   0.000000
    40  Bq   0.000000
    41  Bq   0.000000
    42  Bq   0.000000
    43  Bq   0.000000
    44  Bq   0.000000
    45  Bq   0.000000
    46  Bq   0.000000
    47  Bq   0.000000
    48  Bq   0.000000
    49  Bq   0.000000
    50  Bq   0.000000
    51  Bq   0.000000
    52  Bq   0.000000
    53  Bq   0.000000
    54  Bq   0.000000
    55  Bq   0.000000
    56  Bq   0.000000
    57  Bq   0.000000
    58  Bq   0.000000
    59  Bq   0.000000
    60  Bq   0.000000
    61  Bq   0.000000
    62  Bq   0.000000
    63  Bq   0.000000
    64  Bq   0.000000
    65  Bq   0.000000
    66  Bq   0.000000
    67  Bq   0.000000
    68  Bq   0.000000
    69  Bq   0.000000
    70  Bq   0.000000
    71  Bq   0.000000
    72  Bq   0.000000
    73  Bq   0.000000
    74  Bq   0.000000
    75  Bq   0.000000
    76  Bq   0.000000
    77  Bq   0.000000
    78  Bq   0.000000
    79  Bq   0.000000
    80  Bq   0.000000
    81  Bq   0.000000
    82  Bq   0.000000
    83  Bq   0.000000
    84  Bq   0.000000
    85  Bq   0.000000
    86  Bq   0.000000
    87  Bq   0.000000
    88  Bq   0.000000
    89  Bq   0.000000
    90  Bq   0.000000
    91  Bq   0.000000
    92  Bq   0.000000
    93  Bq   0.000000
    94  Bq   0.000000
    95  Bq   0.000000
    96  Bq   0.000000
    97  Bq   0.000000
    98  Bq   0.000000
    99  Bq   0.000000
   100  Bq   0.000000
   101  Bq   0.000000
   102  Bq   0.000000
   103  Bq   0.000000
   104  Bq   0.000000
   105  Bq   0.000000
   106  Bq   0.000000
   107  Bq   0.000000
   108  Bq   0.000000
   109  Bq   0.000000
   110  Bq   0.000000
   111  Bq   0.000000
   112  Bq   0.000000
   113  Bq   0.000000
   114  Bq   0.000000
   115  Bq   0.000000
   116  Bq   0.000000
   117  Bq   0.000000
   118  Bq   0.000000
   119  Bq   0.000000
   120  Bq   0.000000
   121  Bq   0.000000
   122  Bq   0.000000
   123  Bq   0.000000
   124  Bq   0.000000
   125  Bq   0.000000
   126  Bq   0.000000
   127  Bq   0.000000
   128  Bq   0.000000
   129  Bq   0.000000
   130  Bq   0.000000
   131  Bq   0.000000
   132  Bq   0.000000
   133  Bq   0.000000
   134  Bq   0.000000
   135  Bq   0.000000
   136  Bq   0.000000
   137  Bq   0.000000
   138  Bq   0.000000
   139  Bq   0.000000
   140  Bq   0.000000
   141  Bq   0.000000
   142  Bq   0.000000
   143  Bq   0.000000
   144  Bq   0.000000
   145  Bq   0.000000
   146  Bq   0.000000
   147  Bq   0.000000
   148  Bq   0.000000
   149  Bq   0.000000
   150  Bq   0.000000
   151  Bq   0.000000
   152  Bq   0.000000
   153  Bq   0.000000
   154  Bq   0.000000
   155  Bq   0.000000
   156  Bq   0.000000
   157  Bq   0.000000
   158  Bq   0.000000
   159  Bq   0.000000
   160  Bq   0.000000
   161  Bq   0.000000
   162  Bq   0.000000
   163  Bq   0.000000
   164  Bq   0.000000
   165  Bq   0.000000
   166  Bq   0.000000
   167  Bq   0.000000
   168  Bq   0.000000
   169  Bq   0.000000
   170  Bq   0.000000
   171  Bq   0.000000
   172  Bq   0.000000
   173  Bq   0.000000
   174  Bq   0.000000
   175  Bq   0.000000
   176  Bq   0.000000
   177  Bq   0.000000
   178  Bq   0.000000
   179  Bq   0.000000
   180  Bq   0.000000
   181  Bq   0.000000
   182  Bq   0.000000
   183  Bq   0.000000
   184  Bq   0.000000
   185  Bq   0.000000
   186  Bq   0.000000
   187  Bq   0.000000
   188  Bq   0.000000
   189  Bq   0.000000
   190  Bq   0.000000
   191  Bq   0.000000
   192  Bq   0.000000
   193  Bq   0.000000
   194  Bq   0.000000
   195  Bq   0.000000
   196  Bq   0.000000
   197  Bq   0.000000
   198  Bq   0.000000
   199  Bq   0.000000
   200  Bq   0.000000
   201  Bq   0.000000
   202  Bq   0.000000
   203  Bq   0.000000
   204  Bq   0.000000
   205  Bq   0.000000
   206  Bq   0.000000
   207  Bq   0.000000
   208  Bq   0.000000
   209  Bq   0.000000
   210  Bq   0.000000
   211  Bq   0.000000
   212  Bq   0.000000
   213  Bq   0.000000
   214  Bq   0.000000
   215  Bq   0.000000
   216  Bq   0.000000
   217  Bq   0.000000
   218  Bq   0.000000
   219  Bq   0.000000
   220  Bq   0.000000
   221  Bq   0.000000
   222  Bq   0.000000
   223  Bq   0.000000
   224  Bq   0.000000
   225  Bq   0.000000
   226  Bq   0.000000
   227  Bq   0.000000
   228  Bq   0.000000
   229  Bq   0.000000
   230  Bq   0.000000
   231  Bq   0.000000
   232  Bq   0.000000
   233  Bq   0.000000
   234  Bq   0.000000
   235  Bq   0.000000
   236  Bq   0.000000
   237  Bq   0.000000
   238  Bq   0.000000
   239  Bq   0.000000
   240  Bq   0.000000
   241  Bq   0.000000
   242  Bq   0.000000
   243  Bq   0.000000
   244  Bq   0.000000
   245  Bq   0.000000
   246  Bq   0.000000
   247  Bq   0.000000
   248  Bq   0.000000
   249  Bq   0.000000
   250  Bq   0.000000
   251  Bq   0.000000
   252  Bq   0.000000
   253  Bq   0.000000
   254  Bq   0.000000
   255  Bq   0.000000
   256  Bq   0.000000
   257  Bq   0.000000
   258  Bq   0.000000
   259  Bq   0.000000
   260  Bq   0.000000
   261  Bq   0.000000
   262  Bq   0.000000
   263  Bq   0.000000
   264  Bq   0.000000
   265  Bq   0.000000
   266  Bq   0.000000
   267  Bq   0.000000
   268  Bq   0.000000
   269  Bq   0.000000
   270  Bq   0.000000
   271  Bq   0.000000
   272  Bq   0.000000
   273  Bq   0.000000
   274  Bq   0.000000
   275  Bq   0.000000
   276  Bq   0.000000
   277  Bq   0.000000
   278  Bq   0.000000
   279  Bq   0.000000
   280  Bq   0.000000
   281  Bq   0.000000
   282  Bq   0.000000
   283  Bq   0.000000
   284  Bq   0.000000
   285  Bq   0.000000
   286  Bq   0.000000
   287  Bq   0.000000
   288  Bq   0.000000
   289  Bq   0.000000
   290  Bq   0.000000
   291  Bq   0.000000
   292  Bq   0.000000
   293  Bq   0.000000
   294  Bq   0.000000
   295  Bq   0.000000
   296  Bq   0.000000
   297  Bq   0.000000
   298  Bq   0.000000
   299  Bq   0.000000
   300  Bq   0.000000
   301  Bq   0.000000
   302  Bq   0.000000
   303  Bq   0.000000
   304  Bq   0.000000
   305  Bq   0.000000
   306  Bq   0.000000
   307  Bq   0.000000
   308  Bq   0.000000
   309  Bq   0.000000
   310  Bq   0.000000
   311  Bq   0.000000
   312  Bq   0.000000
   313  Bq   0.000000
   314  Bq   0.000000
   315  Bq   0.000000
   316  Bq   0.000000
   317  Bq   0.000000
   318  Bq   0.000000
   319  Bq   0.000000
   320  Bq   0.000000
   321  Bq   0.000000
   322  Bq   0.000000
   323  Bq   0.000000
   324  Bq   0.000000
   325  Bq   0.000000
   326  Bq   0.000000
   327  Bq   0.000000
   328  Bq   0.000000
   329  Bq   0.000000
   330  Bq   0.000000
   331  Bq   0.000000
   332  Bq   0.000000
   333  Bq   0.000000
   334  Bq   0.000000
   335  Bq   0.000000
 Electronic spatial extent (au):  <R**2>=          10865.9546
 Charge=             -0.0000 electrons
 Dipole moment (field-independent basis, Debye):
    X=             -0.0233    Y=             -0.0002    Z=              0.0265  Tot=              0.0353
 Quadrupole moment (field-independent basis, Debye-Ang):
   XX=           -104.3243   YY=            -92.8632   ZZ=            -95.3679
   XY=              0.0777   XZ=              4.0362   YZ=             -0.0888
 Traceless Quadrupole moment (field-independent basis, Debye-Ang):
   XX=             -6.8059   YY=              4.6553   ZZ=              2.1506
   XY=              0.0777   XZ=              4.0362   YZ=             -0.0888
 Octapole moment (field-independent basis, Debye-Ang**2):
  XXX=             -5.2441  YYY=            913.2167  ZZZ=           -213.2280  XYY=            -32.2054
  XXY=            341.9685  XXZ=            -73.5600  XZZ=             18.6906  YZZ=            312.6021
  YYZ=            -43.7061  XYZ=            -13.2253
 Hexadecapole moment (field-independent basis, Debye-Ang**3):
 XXXX=           -404.7421 YYYY=         -12103.6567 ZZZZ=          -1560.2854 XXXY=             17.1934
 XXXZ=              8.3139 YYYX=            315.0744 YYYZ=            431.7173 ZZZX=             32.6072
 ZZZY=            698.8826 XXYY=          -2270.5086 XXZZ=           -334.4519 YYZZ=          -2256.6945
 XXYZ=            241.1101 YYXZ=             72.9057 ZZXY=            -61.2496
 N-N= 1.105509689246D+03 E-N=-3.818274318426D+03  KE= 6.875441061242D+02
 Leave Link  601 at Tue Dec 12 09:54:01 2023, MaxMem=  1342177280 cpu:               0.2 elap:               0.0
 (Enter /home/wangzhe/g16/l9999.exe)
 1\1\GINC-RHEL-HPC\SP\RB3LYP\6-31G(d)\C18H14\WANGZHE\12-Dec-2023\0\\#p 
 nmr=giao b3lyp/6-31g(d) geom=connectivity\\INICS 10.00 0.20 50 // py.A
 roma 4\\0,1\H,0,-1.479,0.028,-0.643\C,0,-0.886,0.208,0.251\C,0,0.585,0
 .709,2.562\C,0,0.009,-0.773,0.711\C,0,-1.043,1.417,0.933\C,0,-0.307,1.
 667,2.088\C,0,0.741,-0.5,1.879\H,0,-1.744,2.161,0.562\H,0,-0.43,2.608,
 2.619\H,0,1.452,-1.231,2.26\H,0,1.163,0.902,3.462\C,0,0.174,-2.047,-0.
 008\C,0,0.486,-4.486,-1.375\C,0,0.486,-2.07,-1.375\C,0,0.023,-3.278,0.
 657\C,0,0.174,-4.509,-0.008\C,0,0.641,-3.278,-2.055\H,0,0.623,-1.138,-
 1.92\H,0,-0.242,-3.278,1.714\H,0,0.889,-3.278,-3.113\H,0,0.623,-5.418,
 -1.92\C,0,0.009,-5.783,0.711\C,0,-0.307,-8.223,2.088\C,0,-0.886,-6.764
 ,0.251\C,0,0.741,-6.056,1.879\C,0,0.585,-7.265,2.562\C,0,-1.043,-7.973
 ,0.933\H,0,-1.479,-6.584,-0.643\H,0,1.452,-5.325,2.26\H,0,1.163,-7.457
 ,3.462\H,0,-1.744,-8.717,0.562\H,0,-0.43,-9.163,2.619\Bq,0,-7.436456,-
 3.603028,6.921708\Bq,0,-7.29073,-3.521875,6.811354\Bq,0,-7.145004,-3.4
 40721,6.701\Bq,0,-6.999278,-3.359567,6.590646\Bq,0,-6.853552,-3.278413
 ,6.480292\Bq,0,-6.707827,-3.197259,6.369937\Bq,0,-6.562101,-3.116105,6
 .259583\Bq,0,-6.416375,-3.034951,6.149229\Bq,0,-6.270649,-2.953797,6.0
 38875\Bq,0,-6.124924,-2.872643,5.928521\Bq,0,-5.979198,-2.791489,5.818
 167\Bq,0,-5.833472,-2.710336,5.707812\Bq,0,-5.687746,-2.629182,5.59745
 8\Bq,0,-5.54202,-2.548028,5.487104\Bq,0,-5.396295,-2.466874,5.37675\Bq
 ,0,-5.250569,-2.38572,5.266396\Bq,0,-5.104843,-2.304566,5.156042\Bq,0,
 -4.959117,-2.223412,5.045687\Bq,0,-4.813392,-2.142258,4.935333\Bq,0,-4
 .667666,-2.061104,4.824979\Bq,0,-4.52194,-1.97995,4.714625\Bq,0,-4.376
 214,-1.898797,4.604271\Bq,0,-4.230488,-1.817643,4.493917\Bq,0,-4.08476
 3,-1.736489,4.383562\Bq,0,-3.939037,-1.655335,4.273208\Bq,0,-3.793311,
 -1.574181,4.162854\Bq,0,-3.647585,-1.493027,4.0525\Bq,0,-3.50186,-1.41
 1873,3.942146\Bq,0,-3.356134,-1.330719,3.831792\Bq,0,-3.210408,-1.2495
 65,3.721437\Bq,0,-3.064682,-1.168411,3.611083\Bq,0,-2.918956,-1.087257
 ,3.500729\Bq,0,-2.773231,-1.006104,3.390375\Bq,0,-2.627505,-0.92495,3.
 280021\Bq,0,-2.481779,-0.843796,3.169667\Bq,0,-2.336053,-0.762642,3.05
 9312\Bq,0,-2.190328,-0.681488,2.948958\Bq,0,-2.044602,-0.600334,2.8386
 04\Bq,0,-1.898876,-0.51918,2.72825\Bq,0,-1.75315,-0.438026,2.617896\Bq
 ,0,-1.607424,-0.356872,2.507542\Bq,0,-1.461699,-0.275718,2.397187\Bq,0
 ,-1.315973,-0.194565,2.286833\Bq,0,-1.170247,-0.113411,2.176479\Bq,0,-
 1.024521,-0.032257,2.066125\Bq,0,-0.878796,0.048897,1.955771\Bq,0,-0.7
 3307,0.130051,1.845417\Bq,0,-0.587344,0.211205,1.735062\Bq,0,-0.441618
 ,0.292359,1.624708\Bq,0,-0.295892,0.373513,1.514354\Bq,0,-0.150167,0.4
 54667,1.404\Bq,0,-0.004441,0.535821,1.293646\Bq,0,0.141285,0.616974,1.
 183292\Bq,0,0.287011,0.698128,1.072938\Bq,0,0.432736,0.779282,0.962583
 \Bq,0,0.578462,0.860436,0.852229\Bq,0,0.724188,0.94159,0.741875\Bq,0,0
 .869914,1.022744,0.631521\Bq,0,1.01564,1.103898,0.521167\Bq,0,1.161365
 ,1.185052,0.410813\Bq,0,1.307091,1.266206,0.300458\Bq,0,1.452817,1.347
 36,0.190104\Bq,0,1.598543,1.428513,0.07975\Bq,0,1.744268,1.509667,-0.0
 30604\Bq,0,1.889994,1.590821,-0.140958\Bq,0,2.03572,1.671975,-0.251312
 \Bq,0,2.181446,1.753129,-0.361667\Bq,0,2.327172,1.834283,-0.472021\Bq,
 0,2.472897,1.915437,-0.582375\Bq,0,2.618623,1.996591,-0.692729\Bq,0,2.
 764349,2.077745,-0.803083\Bq,0,2.910075,2.158899,-0.913437\Bq,0,3.0558
 ,2.240053,-1.023792\Bq,0,3.201526,2.321206,-1.134146\Bq,0,3.347252,2.4
 0236,-1.2445\Bq,0,3.492978,2.483514,-1.354854\Bq,0,3.638704,2.564668,-
 1.465208\Bq,0,3.784429,2.645822,-1.575562\Bq,0,3.930155,2.726976,-1.68
 5917\Bq,0,4.075881,2.80813,-1.796271\Bq,0,4.221607,2.889284,-1.906625\
 Bq,0,4.367332,2.970438,-2.016979\Bq,0,4.513058,3.051592,-2.127333\Bq,0
 ,4.658784,3.132745,-2.237687\Bq,0,4.80451,3.213899,-2.348042\Bq,0,4.95
 0236,3.295053,-2.458396\Bq,0,5.095961,3.376207,-2.56875\Bq,0,5.241687,
 3.457361,-2.679104\Bq,0,5.387413,3.538515,-2.789458\Bq,0,5.533139,3.61
 9669,-2.899812\Bq,0,5.678864,3.700823,-3.010167\Bq,0,5.82459,3.781977,
 -3.120521\Bq,0,5.970316,3.863131,-3.230875\Bq,0,6.116042,3.944284,-3.3
 41229\Bq,0,6.261768,4.025438,-3.451583\Bq,0,6.407493,4.106592,-3.56193
 7\Bq,0,6.553219,4.187746,-3.672292\Bq,0,6.698945,4.2689,-3.782646\Bq,0
 ,6.844671,4.350054,-3.893\Bq,0,6.990396,4.431208,-4.003354\Bq,0,7.1361
 22,4.512362,-4.113708\Bq,0,-9.41913,-3.278,-2.916939\Bq,0,-9.224135,-3
 .278,-2.87248\Bq,0,-9.029139,-3.278,-2.828021\Bq,0,-8.834143,-3.278,-2
 .783562\Bq,0,-8.639147,-3.278,-2.739104\Bq,0,-8.444151,-3.278,-2.69464
 5\Bq,0,-8.249155,-3.278,-2.650186\Bq,0,-8.054159,-3.278,-2.605727\Bq,0
 ,-7.859163,-3.278,-2.561268\Bq,0,-7.664167,-3.278,-2.51681\Bq,0,-7.469
 171,-3.278,-2.472351\Bq,0,-7.274175,-3.278,-2.427892\Bq,0,-7.079179,-3
 .278,-2.383433\Bq,0,-6.884183,-3.278,-2.338975\Bq,0,-6.689187,-3.278,-
 2.294516\Bq,0,-6.494191,-3.278,-2.250057\Bq,0,-6.299195,-3.278,-2.2055
 98\Bq,0,-6.104199,-3.278,-2.161139\Bq,0,-5.909203,-3.278,-2.116681\Bq,
 0,-5.714208,-3.278,-2.072222\Bq,0,-5.519212,-3.278,-2.027763\Bq,0,-5.3
 24216,-3.278,-1.983304\Bq,0,-5.12922,-3.278,-1.938846\Bq,0,-4.934224,-
 3.278,-1.894387\Bq,0,-4.739228,-3.278,-1.849928\Bq,0,-4.544232,-3.278,
 -1.805469\Bq,0,-4.349236,-3.278,-1.761011\Bq,0,-4.15424,-3.278,-1.7165
 52\Bq,0,-3.959244,-3.278,-1.672093\Bq,0,-3.764248,-3.278,-1.627634\Bq,
 0,-3.569252,-3.278,-1.583175\Bq,0,-3.374256,-3.278,-1.538717\Bq,0,-3.1
 7926,-3.278,-1.494258\Bq,0,-2.984264,-3.278,-1.449799\Bq,0,-2.789268,-
 3.278,-1.40534\Bq,0,-2.594272,-3.278,-1.360882\Bq,0,-2.399277,-3.278,-
 1.316423\Bq,0,-2.204281,-3.278,-1.271964\Bq,0,-2.009285,-3.278,-1.2275
 05\Bq,0,-1.814289,-3.278,-1.183046\Bq,0,-1.619293,-3.278,-1.138588\Bq,
 0,-1.424297,-3.278,-1.094129\Bq,0,-1.229301,-3.278,-1.04967\Bq,0,-1.03
 4305,-3.278,-1.005211\Bq,0,-0.839309,-3.278,-0.960753\Bq,0,-0.644313,-
 3.278,-0.916294\Bq,0,-0.449317,-3.278,-0.871835\Bq,0,-0.254321,-3.278,
 -0.827376\Bq,0,-0.059325,-3.278,-0.782918\Bq,0,0.135671,-3.278,-0.7384
 59\Bq,0,0.330667,-3.278,-0.694\Bq,0,0.525663,-3.278,-0.649541\Bq,0,0.7
 20659,-3.278,-0.605082\Bq,0,0.915654,-3.278,-0.560624\Bq,0,1.11065,-3.
 278,-0.516165\Bq,0,1.305646,-3.278,-0.471706\Bq,0,1.500642,-3.278,-0.4
 27247\Bq,0,1.695638,-3.278,-0.382789\Bq,0,1.890634,-3.278,-0.33833\Bq,
 0,2.08563,-3.278,-0.293871\Bq,0,2.280626,-3.278,-0.249412\Bq,0,2.47562
 2,-3.278,-0.204954\Bq,0,2.670618,-3.278,-0.160495\Bq,0,2.865614,-3.278
 ,-0.116036\Bq,0,3.06061,-3.278,-0.071577\Bq,0,3.255606,-3.278,-0.02711
 8\Bq,0,3.450602,-3.278,0.01734\Bq,0,3.645598,-3.278,0.061799\Bq,0,3.84
 0594,-3.278,0.106258\Bq,0,4.03559,-3.278,0.150717\Bq,0,4.230586,-3.278
 ,0.195175\Bq,0,4.425581,-3.278,0.239634\Bq,0,4.620577,-3.278,0.284093\
 Bq,0,4.815573,-3.278,0.328552\Bq,0,5.010569,-3.278,0.373011\Bq,0,5.205
 565,-3.278,0.417469\Bq,0,5.400561,-3.278,0.461928\Bq,0,5.595557,-3.278
 ,0.506387\Bq,0,5.790553,-3.278,0.550846\Bq,0,5.985549,-3.278,0.595304\
 Bq,0,6.180545,-3.278,0.639763\Bq,0,6.375541,-3.278,0.684222\Bq,0,6.570
 537,-3.278,0.728681\Bq,0,6.765533,-3.278,0.773139\Bq,0,6.960529,-3.278
 ,0.817598\Bq,0,7.155525,-3.278,0.862057\Bq,0,7.350521,-3.278,0.906516\
 Bq,0,7.545517,-3.278,0.950975\Bq,0,7.740512,-3.278,0.995433\Bq,0,7.935
 508,-3.278,1.039892\Bq,0,8.130504,-3.278,1.084351\Bq,0,8.3255,-3.278,1
 .12881\Bq,0,8.520496,-3.278,1.173268\Bq,0,8.715492,-3.278,1.217727\Bq,
 0,8.910488,-3.278,1.262186\Bq,0,9.105484,-3.278,1.306645\Bq,0,9.30048,
 -3.278,1.351104\Bq,0,9.495476,-3.278,1.395562\Bq,0,9.690472,-3.278,1.4
 40021\Bq,0,9.885468,-3.278,1.48448\Bq,0,10.080464,-3.278,1.528939\Bq,0
 ,-7.436456,-2.952972,6.921708\Bq,0,-7.29073,-3.034125,6.811354\Bq,0,-7
 .145004,-3.115279,6.701\Bq,0,-6.999278,-3.196433,6.590646\Bq,0,-6.8535
 52,-3.277587,6.480292\Bq,0,-6.707827,-3.358741,6.369937\Bq,0,-6.562101
 ,-3.439895,6.259583\Bq,0,-6.416375,-3.521049,6.149229\Bq,0,-6.270649,-
 3.602203,6.038875\Bq,0,-6.124924,-3.683357,5.928521\Bq,0,-5.979198,-3.
 764511,5.818167\Bq,0,-5.833472,-3.845664,5.707812\Bq,0,-5.687746,-3.92
 6818,5.597458\Bq,0,-5.54202,-4.007972,5.487104\Bq,0,-5.396295,-4.08912
 6,5.37675\Bq,0,-5.250569,-4.17028,5.266396\Bq,0,-5.104843,-4.251434,5.
 156042\Bq,0,-4.959117,-4.332588,5.045687\Bq,0,-4.813392,-4.413742,4.93
 5333\Bq,0,-4.667666,-4.494896,4.824979\Bq,0,-4.52194,-4.57605,4.714625
 \Bq,0,-4.376214,-4.657203,4.604271\Bq,0,-4.230488,-4.738357,4.493917\B
 q,0,-4.084763,-4.819511,4.383562\Bq,0,-3.939037,-4.900665,4.273208\Bq,
 0,-3.793311,-4.981819,4.162854\Bq,0,-3.647585,-5.062973,4.0525\Bq,0,-3
 .50186,-5.144127,3.942146\Bq,0,-3.356134,-5.225281,3.831792\Bq,0,-3.21
 0408,-5.306435,3.721437\Bq,0,-3.064682,-5.387589,3.611083\Bq,0,-2.9189
 56,-5.468743,3.500729\Bq,0,-2.773231,-5.549896,3.390375\Bq,0,-2.627505
 ,-5.63105,3.280021\Bq,0,-2.481779,-5.712204,3.169667\Bq,0,-2.336053,-5
 .793358,3.059312\Bq,0,-2.190328,-5.874512,2.948958\Bq,0,-2.044602,-5.9
 55666,2.838604\Bq,0,-1.898876,-6.03682,2.72825\Bq,0,-1.75315,-6.117974
 ,2.617896\Bq,0,-1.607424,-6.199128,2.507542\Bq,0,-1.461699,-6.280282,2
 .397187\Bq,0,-1.315973,-6.361435,2.286833\Bq,0,-1.170247,-6.442589,2.1
 76479\Bq,0,-1.024521,-6.523743,2.066125\Bq,0,-0.878796,-6.604897,1.955
 771\Bq,0,-0.73307,-6.686051,1.845417\Bq,0,-0.587344,-6.767205,1.735062
 \Bq,0,-0.441618,-6.848359,1.624708\Bq,0,-0.295892,-6.929513,1.514354\B
 q,0,-0.150167,-7.010667,1.404\Bq,0,-0.004441,-7.091821,1.293646\Bq,0,0
 .141285,-7.172974,1.183292\Bq,0,0.287011,-7.254128,1.072938\Bq,0,0.432
 736,-7.335282,0.962583\Bq,0,0.578462,-7.416436,0.852229\Bq,0,0.724188,
 -7.49759,0.741875\Bq,0,0.869914,-7.578744,0.631521\Bq,0,1.01564,-7.659
 898,0.521167\Bq,0,1.161365,-7.741052,0.410813\Bq,0,1.307091,-7.822206,
 0.300458\Bq,0,1.452817,-7.90336,0.190104\Bq,0,1.598543,-7.984513,0.079
 75\Bq,0,1.744268,-8.065667,-0.030604\Bq,0,1.889994,-8.146821,-0.140958
 \Bq,0,2.03572,-8.227975,-0.251312\Bq,0,2.181446,-8.309129,-0.361667\Bq
 ,0,2.327172,-8.390283,-0.472021\Bq,0,2.472897,-8.471437,-0.582375\Bq,0
 ,2.618623,-8.552591,-0.692729\Bq,0,2.764349,-8.633745,-0.803083\Bq,0,2
 .910075,-8.714899,-0.913437\Bq,0,3.0558,-8.796053,-1.023792\Bq,0,3.201
 526,-8.877206,-1.134146\Bq,0,3.347252,-8.95836,-1.2445\Bq,0,3.492978,-
 9.039514,-1.354854\Bq,0,3.638704,-9.120668,-1.465208\Bq,0,3.784429,-9.
 201822,-1.575562\Bq,0,3.930155,-9.282976,-1.685917\Bq,0,4.075881,-9.36
 413,-1.796271\Bq,0,4.221607,-9.445284,-1.906625\Bq,0,4.367332,-9.52643
 8,-2.016979\Bq,0,4.513058,-9.607592,-2.127333\Bq,0,4.658784,-9.688745,
 -2.237687\Bq,0,4.80451,-9.769899,-2.348042\Bq,0,4.950236,-9.851053,-2.
 458396\Bq,0,5.095961,-9.932207,-2.56875\Bq,0,5.241687,-10.013361,-2.67
 9104\Bq,0,5.387413,-10.094515,-2.789458\Bq,0,5.533139,-10.175669,-2.89
 9812\Bq,0,5.678864,-10.256823,-3.010167\Bq,0,5.82459,-10.337977,-3.120
 521\Bq,0,5.970316,-10.419131,-3.230875\Bq,0,6.116042,-10.500284,-3.341
 229\Bq,0,6.261768,-10.581438,-3.451583\Bq,0,6.407493,-10.662592,-3.561
 937\Bq,0,6.553219,-10.743746,-3.672292\Bq,0,6.698945,-10.8249,-3.78264
 6\Bq,0,6.844671,-10.906054,-3.893\Bq,0,6.990396,-10.987208,-4.003354\B
 q,0,7.136122,-11.068362,-4.113708\\Version=ES64L-G16RevB.01\HF=-694.36
 06711\RMSD=4.026e-09\Dipole=-0.0091607,-0.0000925,0.0104398\Quadrupole
 =-5.0599998,3.4610717,1.5989281,0.0577829,3.0007881,-0.0660237\PG=C01 
 [X(C18H14)]\\@


 You never know when you're making a memory.
                        -- Rickie Lee Jones
 Job cpu time:       0 days  0 hours  4 minutes 37.6 seconds.
 Elapsed time:       0 days  0 hours  0 minutes 36.8 seconds.
 File lengths (MBytes):  RWF=     58 Int=      0 D2E=      0 Chk=      9 Scr=      1
 Normal termination of Gaussian 16 at Tue Dec 12 09:54:01 2023.
