 Entering Gaussian System, Link 0=g16
 Initial command:
 /home/wangzhe/g16/l1.exe "/home/wangzhe/g16/Scratch/Gau-105687.inp" -scrdir="/home/wangzhe/g16/Scratch/"
 Default is to use a total of  16 processors:
                               16 via shared-memory
                                1 via Linda
 Entering Link 1 = /home/wangzhe/g16/l1.exe PID=    105693.
  
 Copyright (c) 1988-2017, Gaussian, Inc.  All Rights Reserved.
  
 This is part of the Gaussian(R) 16 program.  It is based on
 the Gaussian(R) 09 system (copyright 2009, Gaussian, Inc.),
 the Gaussian(R) 03 system (copyright 2003, Gaussian, Inc.),
 the Gaussian(R) 98 system (copyright 1998, Gaussian, Inc.),
 the Gaussian(R) 94 system (copyright 1995, Gaussian, Inc.),
 the Gaussian 92(TM) system (copyright 1992, Gaussian, Inc.),
 the Gaussian 90(TM) system (copyright 1990, Gaussian, Inc.),
 the Gaussian 88(TM) system (copyright 1988, Gaussian, Inc.),
 the Gaussian 86(TM) system (copyright 1986, Carnegie Mellon
 University), and the Gaussian 82(TM) system (copyright 1983,
 Carnegie Mellon University). Gaussian is a federally registered
 trademark of Gaussian, Inc.
  
 This software contains proprietary and confidential information,
 including trade secrets, belonging to Gaussian, Inc.
  
 This software is provided under written license and may be
 used, copied, transmitted, or stored only in accord with that
 written license.
  
 The following legend is applicable only to US Government
 contracts under FAR:
  
                    RESTRICTED RIGHTS LEGEND
  
 Use, reproduction and disclosure by the US Government is
 subject to restrictions as set forth in subparagraphs (a)
 and (c) of the Commercial Computer Software - Restricted
 Rights clause in FAR 52.227-19.
  
 Gaussian, Inc.
 340 Quinnipiac St., Bldg. 40, Wallingford CT 06492
  
  
 ---------------------------------------------------------------
 Warning -- This program may not be used in any manner that
 competes with the business of Gaussian, Inc. or will provide
 assistance to any competitor of Gaussian, Inc.  The licensee
 of this program is prohibited from giving any competitor of
 Gaussian, Inc. access to this program.  By using this program,
 the user acknowledges that Gaussian, Inc. is engaged in the
 business of creating and licensing software in the field of
 computational chemistry and represents and warrants to the
 licensee that it is not a competitor of Gaussian, Inc. and that
 it will not use this program in any manner prohibited above.
 ---------------------------------------------------------------
  

 Cite this work as:
 Gaussian 16, Revision B.01,
 M. J. Frisch, G. W. Trucks, H. B. Schlegel, G. E. Scuseria, 
 M. A. Robb, J. R. Cheeseman, G. Scalmani, V. Barone, 
 G. A. Petersson, H. Nakatsuji, X. Li, M. Caricato, A. V. Marenich, 
 J. Bloino, B. G. Janesko, R. Gomperts, B. Mennucci, H. P. Hratchian, 
 J. V. Ortiz, A. F. Izmaylov, J. L. Sonnenberg, D. Williams-Young, 
 F. Ding, F. Lipparini, F. Egidi, J. Goings, B. Peng, A. Petrone, 
 T. Henderson, D. Ranasinghe, V. G. Zakrzewski, J. Gao, N. Rega, 
 G. Zheng, W. Liang, M. Hada, M. Ehara, K. Toyota, R. Fukuda, 
 J. Hasegawa, M. Ishida, T. Nakajima, Y. Honda, O. Kitao, H. Nakai, 
 T. Vreven, K. Throssell, J. A. Montgomery, Jr., J. E. Peralta, 
 F. Ogliaro, M. J. Bearpark, J. J. Heyd, E. N. Brothers, K. N. Kudin, 
 V. N. Staroverov, T. A. Keith, R. Kobayashi, J. Normand, 
 K. Raghavachari, A. P. Rendell, J. C. Burant, S. S. Iyengar, 
 J. Tomasi, M. Cossi, J. M. Millam, M. Klene, C. Adamo, R. Cammi, 
 J. W. Ochterski, R. L. Martin, K. Morokuma, O. Farkas, 
 J. B. Foresman, and D. J. Fox, Gaussian, Inc., Wallingford CT, 2016.
 
 ******************************************
 Gaussian 16:  ES64L-G16RevB.01 20-Dec-2017
                15-Mar-2023 
 ******************************************
 %nprocshared=8
 Will use up to    8 processors via shared memory.
 %mem=10gb
 %chk=1_fluoro_3_ethylazulene_3D_NICS.chk
 ---------------------------------------------------------
 #p nmr=giao ub3lyp/6-31+g(d) geom=connectivity guess=read
 ---------------------------------------------------------
 1/38=1,57=2,172=1/1;
 2/12=2,17=6,18=5,40=1/2;
 3/5=1,6=6,7=11,11=2,25=1,30=1,74=-5,116=2/1,2,3,8;
 4/5=1/1;
 5/5=2,38=6/2;
 8/6=1,10=90,11=11/1;
 10/13=100,45=16/2;
 6/7=2,8=2,9=2,10=2,28=1/1;
 99/9=1/99;
 Leave Link    1 at Wed Mar 15 12:04:44 2023, MaxMem=  1342177280 cpu:               0.3 elap:               0.0
 (Enter /home/wangzhe/g16/l101.exe)
 --------------------------
 File Created by py.Aroma 3
 --------------------------
 Symbolic Z-matrix:
 Charge =  0 Multiplicity = 3
 C                    -0.17873  -0.38709  -0.19983 
 C                     0.69529   0.81016  -0.00322 
 C                     2.07272   0.86595   0.1662 
 H                     2.48199   1.86642   0.29189 
 C                     2.98194  -0.18308   0.19745 
 H                     4.02225   0.0922    0.3449 
 C                     2.72666  -1.5518    0.06203 
 H                     3.60726  -2.18851   0.12058 
 C                     1.52908  -2.22809  -0.13728 
 C                     0.23645  -1.70416  -0.25306 
 H                    -0.55248  -2.43905  -0.40665 
 C                    -1.50808   0.07483  -0.32619 
 C                    -1.49114   1.47023  -0.21572 
 H                    -2.35426   2.12217  -0.27092 
 C                    -0.17528   1.89438  -0.02533 
 H                     1.60521  -3.30913  -0.21359 
 C                    -2.73711  -0.77276  -0.48802 
 H                    -3.52942  -0.16619  -0.93946 
 H                    -2.54257  -1.58814  -1.19503 
 C                    -3.23915  -1.35753   0.83915 
 H                    -3.47791  -0.55804   1.54627 
 H                    -2.47445  -1.98883   1.30151 
 H                    -4.1382   -1.96276   0.6884 
 F                     0.20852   3.17041   0.115 
 Bq                    4.96     -0.41      1.3 
 Bq                    4.96     -0.41      1.5 
 Bq                    4.96     -0.41      1.7 
 Bq                    4.96     -0.41      1.9 
 Bq                    4.96     -0.41      2.1 
 Bq                    4.96     -0.41      2.3 
 Bq                    4.96     -0.41      2.5 
 Bq                    4.96     -0.41      2.7 
 Bq                    4.96     -0.41      2.9 
 Bq                    4.96     -0.41      3.1 
 Bq                    4.96     -0.21     -2.7 
 Bq                    4.96     -0.21     -2.5 
 Bq                    4.96     -0.21     -2.3 
 Bq                    4.96     -0.21     -2.1 
 Bq                    4.96     -0.21     -1.9 
 Bq                    4.96     -0.21     -1.7 
 Bq                    4.96     -0.21     -1.5 
 Bq                    4.96     -0.21     -1.3 
 Bq                    4.96     -0.21     -1.1 
 Bq                    4.96     -0.21     -0.9 
 Bq                    4.96     -0.21     -0.7 
 Bq                    4.96     -0.21     -0.5 
 Bq                    4.96     -0.21     -0.3 
 Bq                    4.96     -0.21     -0.1 
 Bq                    4.96     -0.21      0.1 
 Bq                    4.96     -0.21      0.3 
 Bq                    4.96     -0.21      0.5 
 Bq                    4.96     -0.21      0.7 
 Bq                    4.96     -0.21      0.9 
 Bq                    4.96     -0.21      1.1 
 Bq                    4.96     -0.21      1.3 
 Bq                    4.96     -0.21      1.5 
 Bq                    4.96     -0.21      1.7 
 Bq                    4.96     -0.21      1.9 
 Bq                    4.96     -0.21      2.1 
 Bq                    4.96     -0.21      2.3 
 Bq                    4.96     -0.21      2.5 
 Bq                    4.96     -0.21      2.7 
 Bq                    4.96     -0.21      2.9 
 Bq                    4.96     -0.21      3.1 
 Bq                    4.96     -0.01     -2.7 
 Bq                    4.96     -0.01     -2.5 
 Bq                    4.96     -0.01     -2.3 
 Bq                    4.96     -0.01     -2.1 
 Bq                    4.96     -0.01     -1.9 
 Bq                    4.96     -0.01     -1.7 
 Bq                    4.96     -0.01     -1.5 
 Bq                    4.96     -0.01     -1.3 
 Bq                    4.96     -0.01     -1.1 
 Bq                    4.96     -0.01     -0.9 
 Bq                    4.96     -0.01     -0.7 
 Bq                    4.96     -0.01     -0.5 
 Bq                    4.96     -0.01     -0.3 
 Bq                    4.96     -0.01     -0.1 
 Bq                    4.96     -0.01      0.1 
 Bq                    4.96     -0.01      0.3 
 Bq                    4.96     -0.01      0.5 
 Bq                    4.96     -0.01      0.7 
 Bq                    4.96     -0.01      0.9 
 Bq                    4.96     -0.01      1.1 
 Bq                    4.96     -0.01      1.3 
 Bq                    4.96     -0.01      1.5 
 Bq                    4.96     -0.01      1.7 
 Bq                    4.96     -0.01      1.9 
 Bq                    4.96     -0.01      2.1 
 Bq                    4.96     -0.01      2.3 
 Bq                    4.96     -0.01      2.5 
 Bq                    4.96     -0.01      2.7 
 Bq                    4.96     -0.01      2.9 
 Bq                    4.96     -0.01      3.1 
 Bq                    4.96      0.19     -2.7 
 Bq                    4.96      0.19     -2.5 
 Bq                    4.96      0.19     -2.3 
 Bq                    4.96      0.19     -2.1 
 Bq                    4.96      0.19     -1.9 
 Bq                    4.96      0.19     -1.7 
 Bq                    4.96      0.19     -1.5 
 Bq                    4.96      0.19     -1.3 
 Bq                    4.96      0.19     -1.1 
 Bq                    4.96      0.19     -0.9 
 Bq                    4.96      0.19     -0.7 
 Bq                    4.96      0.19     -0.5 
 Bq                    4.96      0.19     -0.3 
 Bq                    4.96      0.19     -0.1 
 Bq                    4.96      0.19      0.1 
 Bq                    4.96      0.19      0.3 
 Bq                    4.96      0.19      0.5 
 Bq                    4.96      0.19      0.7 
 Bq                    4.96      0.19      0.9 
 Bq                    4.96      0.19      1.1 
 Bq                    4.96      0.19      1.3 
 Bq                    4.96      0.19      1.5 
 Bq                    4.96      0.19      1.7 
 Bq                    4.96      0.19      1.9 
 Bq                    4.96      0.19      2.1 
 Bq                    4.96      0.19      2.3 
 Bq                    4.96      0.19      2.5 
 Bq                    4.96      0.19      2.7 
 Bq                    4.96      0.19      2.9 
 Bq                    4.96      0.19      3.1 
 Bq                    4.96      0.39     -2.7 
 Bq                    4.96      0.39     -2.5 
 Bq                    4.96      0.39     -2.3 
 Bq                    4.96      0.39     -2.1 
 Bq                    4.96      0.39     -1.9 
 Bq                    4.96      0.39     -1.7 
 Bq                    4.96      0.39     -1.5 
 Bq                    4.96      0.39     -1.3 
 Bq                    4.96      0.39     -1.1 
 Bq                    4.96      0.39     -0.9 
 Bq                    4.96      0.39     -0.7 
 Bq                    4.96      0.39     -0.5 
 Bq                    4.96      0.39     -0.3 
 Bq                    4.96      0.39     -0.1 
 Bq                    4.96      0.39      0.1 
 Bq                    4.96      0.39      0.3 
 Bq                    4.96      0.39      0.5 
 Bq                    4.96      0.39      0.7 
 Bq                    4.96      0.39      0.9 
 Bq                    4.96      0.39      1.1 
 Bq                    4.96      0.39      1.3 
 Bq                    4.96      0.39      1.5 
 Bq                    4.96      0.39      1.7 
 Bq                    4.96      0.39      1.9 
 Bq                    4.96      0.39      2.1 
 Bq                    4.96      0.39      2.3 
 Bq                    4.96      0.39      2.5 
 Bq                    4.96      0.39      2.7 
 Bq                    4.96      0.39      2.9 
 Bq                    4.96      0.39      3.1 
 Bq                    4.96      0.59     -2.7 
 Bq                    4.96      0.59     -2.5 
 Bq                    4.96      0.59     -2.3 
 Bq                    4.96      0.59     -2.1 
 Bq                    4.96      0.59     -1.9 
 Bq                    4.96      0.59     -1.7 
 Bq                    4.96      0.59     -1.5 
 Bq                    4.96      0.59     -1.3 
 Bq                    4.96      0.59     -1.1 
 Bq                    4.96      0.59     -0.9 
 Bq                    4.96      0.59     -0.7 
 Bq                    4.96      0.59     -0.5 
 Bq                    4.96      0.59     -0.3 
 Bq                    4.96      0.59     -0.1 
 Bq                    4.96      0.59      0.1 
 Bq                    4.96      0.59      0.3 
 Bq                    4.96      0.59      0.5 
 Bq                    4.96      0.59      0.7 
 Bq                    4.96      0.59      0.9 
 Bq                    4.96      0.59      1.1 
 Bq                    4.96      0.59      1.3 
 Bq                    4.96      0.59      1.5 
 Bq                    4.96      0.59      1.7 
 Bq                    4.96      0.59      1.9 
 Bq                    4.96      0.59      2.1 
 Bq                    4.96      0.59      2.3 
 Bq                    4.96      0.59      2.5 
 Bq                    4.96      0.59      2.7 
 Bq                    4.96      0.59      2.9 
 Bq                    4.96      0.59      3.1 
 Bq                    4.96      0.79     -2.7 
 Bq                    4.96      0.79     -2.5 
 Bq                    4.96      0.79     -2.3 
 Bq                    4.96      0.79     -2.1 
 Bq                    4.96      0.79     -1.9 
 Bq                    4.96      0.79     -1.7 
 Bq                    4.96      0.79     -1.5 
 Bq                    4.96      0.79     -1.3 
 Bq                    4.96      0.79     -1.1 
 Bq                    4.96      0.79     -0.9 
 Bq                    4.96      0.79     -0.7 
 Bq                    4.96      0.79     -0.5 
 Bq                    4.96      0.79     -0.3 
 Bq                    4.96      0.79     -0.1 
 Bq                    4.96      0.79      0.1 
 Bq                    4.96      0.79      0.3 
 Bq                    4.96      0.79      0.5 
 Bq                    4.96      0.79      0.7 
 Bq                    4.96      0.79      0.9 
 Bq                    4.96      0.79      1.1 
 Bq                    4.96      0.79      1.3 
 Bq                    4.96      0.79      1.5 
 Bq                    4.96      0.79      1.7 
 Bq                    4.96      0.79      1.9 
 Bq                    4.96      0.79      2.1 
 Bq                    4.96      0.79      2.3 
 Bq                    4.96      0.79      2.5 
 Bq                    4.96      0.79      2.7 
 Bq                    4.96      0.79      2.9 
 Bq                    4.96      0.79      3.1 
 Bq                    4.96      0.99     -2.7 
 Bq                    4.96      0.99     -2.5 
 Bq                    4.96      0.99     -2.3 
 Bq                    4.96      0.99     -2.1 
 Bq                    4.96      0.99     -1.9 
 Bq                    4.96      0.99     -1.7 
 Bq                    4.96      0.99     -1.5 
 Bq                    4.96      0.99     -1.3 
 Bq                    4.96      0.99     -1.1 
 Bq                    4.96      0.99     -0.9 
 Bq                    4.96      0.99     -0.7 
 Bq                    4.96      0.99     -0.5 
 Bq                    4.96      0.99     -0.3 
 Bq                    4.96      0.99     -0.1 
 Bq                    4.96      0.99      0.1 
 Bq                    4.96      0.99      0.3 
 Bq                    4.96      0.99      0.5 
 Bq                    4.96      0.99      0.7 
 Bq                    4.96      0.99      0.9 
 Bq                    4.96      0.99      1.1 
 Bq                    4.96      0.99      1.3 
 Bq                    4.96      0.99      1.5 
 Bq                    4.96      0.99      1.7 
 Bq                    4.96      0.99      1.9 
 Bq                    4.96      0.99      2.1 
 Bq                    4.96      0.99      2.3 
 Bq                    4.96      0.99      2.5 
 Bq                    4.96      0.99      2.7 
 Bq                    4.96      0.99      2.9 
 Bq                    4.96      0.99      3.1 
 Bq                    4.96      1.19     -2.7 
 Bq                    4.96      1.19     -2.5 
 Bq                    4.96      1.19     -2.3 
 Bq                    4.96      1.19     -2.1 
 Bq                    4.96      1.19     -1.9 
 Bq                    4.96      1.19     -1.7 
 Bq                    4.96      1.19     -1.5 
 Bq                    4.96      1.19     -1.3 
 Bq                    4.96      1.19     -1.1 
 Bq                    4.96      1.19     -0.9 
 Bq                    4.96      1.19     -0.7 
 Bq                    4.96      1.19     -0.5 
 Bq                    4.96      1.19     -0.3 
 Bq                    4.96      1.19     -0.1 
 Bq                    4.96      1.19      0.1 
 Bq                    4.96      1.19      0.3 
 Bq                    4.96      1.19      0.5 
 Bq                    4.96      1.19      0.7 
 Bq                    4.96      1.19      0.9 
 Bq                    4.96      1.19      1.1 
 Bq                    4.96      1.19      1.3 
 Bq                    4.96      1.19      1.5 
 Bq                    4.96      1.19      1.7 
 Bq                    4.96      1.19      1.9 
 Bq                    4.96      1.19      2.1 
 Bq                    4.96      1.19      2.3 
 Bq                    4.96      1.19      2.5 
 Bq                    4.96      1.19      2.7 
 Bq                    4.96      1.19      2.9 
 Bq                    4.96      1.19      3.1 
 Bq                    4.96      1.39     -2.7 
 Bq                    4.96      1.39     -2.5 
 Bq                    4.96      1.39     -2.3 
 Bq                    4.96      1.39     -2.1 
 Bq                    4.96      1.39     -1.9 
 Bq                    4.96      1.39     -1.7 
 Bq                    4.96      1.39     -1.5 
 Bq                    4.96      1.39     -1.3 
 Bq                    4.96      1.39     -1.1 
 Bq                    4.96      1.39     -0.9 
 Bq                    4.96      1.39     -0.7 
 Bq                    4.96      1.39     -0.5 
 Bq                    4.96      1.39     -0.3 
 Bq                    4.96      1.39     -0.1 
 Bq                    4.96      1.39      0.1 
 Bq                    4.96      1.39      0.3 
 Bq                    4.96      1.39      0.5 
 Bq                    4.96      1.39      0.7 
 Bq                    4.96      1.39      0.9 
 Bq                    4.96      1.39      1.1 
 Bq                    4.96      1.39      1.3 
 Bq                    4.96      1.39      1.5 
 Bq                    4.96      1.39      1.7 
 Bq                    4.96      1.39      1.9 
 Bq                    4.96      1.39      2.1 
 Bq                    4.96      1.39      2.3 
 Bq                    4.96      1.39      2.5 
 Bq                    4.96      1.39      2.7 
 Bq                    4.96      1.39      2.9 
 Bq                    4.96      1.39      3.1 
 Bq                    4.96      1.59     -2.7 
 Bq                    4.96      1.59     -2.5 
 Bq                    4.96      1.59     -2.3 
 Bq                    4.96      1.59     -2.1 
 Bq                    4.96      1.59     -1.9 
 Bq                    4.96      1.59     -1.7 
 Bq                    4.96      1.59     -1.5 
 Bq                    4.96      1.59     -1.3 
 Bq                    4.96      1.59     -1.1 
 Bq                    4.96      1.59     -0.9 
 Bq                    4.96      1.59     -0.7 
 Bq                    4.96      1.59     -0.5 
 Bq                    4.96      1.59     -0.3 
 Bq                    4.96      1.59     -0.1 
 Bq                    4.96      1.59      0.1 
 Bq                    4.96      1.59      0.3 
 Bq                    4.96      1.59      0.5 
 Bq                    4.96      1.59      0.7 
 Bq                    4.96      1.59      0.9 
 Bq                    4.96      1.59      1.1 
 Bq                    4.96      1.59      1.3 
 Bq                    4.96      1.59      1.5 
 Bq                    4.96      1.59      1.7 
 Bq                    4.96      1.59      1.9 
 Bq                    4.96      1.59      2.1 
 Bq                    4.96      1.59      2.3 
 Bq                    4.96      1.59      2.5 
 Bq                    4.96      1.59      2.7 
 Bq                    4.96      1.59      2.9 
 Bq                    4.96      1.59      3.1 
 Bq                    4.96      1.79     -2.7 
 Bq                    4.96      1.79     -2.5 
 Bq                    4.96      1.79     -2.3 
 Bq                    4.96      1.79     -2.1 
 Bq                    4.96      1.79     -1.9 
 Bq                    4.96      1.79     -1.7 
 Bq                    4.96      1.79     -1.5 
 Bq                    4.96      1.79     -1.3 
 Bq                    4.96      1.79     -1.1 
 Bq                    4.96      1.79     -0.9 
 Bq                    4.96      1.79     -0.7 
 Bq                    4.96      1.79     -0.5 
 Bq                    4.96      1.79     -0.3 
 Bq                    4.96      1.79     -0.1 
 Bq                    4.96      1.79      0.1 
 Bq                    4.96      1.79      0.3 
 Bq                    4.96      1.79      0.5 
 Bq                    4.96      1.79      0.7 
 Bq                    4.96      1.79      0.9 
 Bq                    4.96      1.79      1.1 
 Bq                    4.96      1.79      1.3 
 Bq                    4.96      1.79      1.5 
 Bq                    4.96      1.79      1.7 
 Bq                    4.96      1.79      1.9 
 Bq                    4.96      1.79      2.1 
 Bq                    4.96      1.79      2.3 
 Bq                    4.96      1.79      2.5 
 Bq                    4.96      1.79      2.7 
 Bq                    4.96      1.79      2.9 
 Bq                    4.96      1.79      3.1 
 Bq                    4.96      1.99     -2.7 
 Bq                    4.96      1.99     -2.5 
 Bq                    4.96      1.99     -2.3 
 Bq                    4.96      1.99     -2.1 
 Bq                    4.96      1.99     -1.9 
 Bq                    4.96      1.99     -1.7 
 Bq                    4.96      1.99     -1.5 
 Bq                    4.96      1.99     -1.3 
 Bq                    4.96      1.99     -1.1 
 Bq                    4.96      1.99     -0.9 
 Bq                    4.96      1.99     -0.7 
 Bq                    4.96      1.99     -0.5 
 Bq                    4.96      1.99     -0.3 
 Bq                    4.96      1.99     -0.1 
 Bq                    4.96      1.99      0.1 
 Bq                    4.96      1.99      0.3 
 Bq                    4.96      1.99      0.5 
 Bq                    4.96      1.99      0.7 
 Bq                    4.96      1.99      0.9 
 Bq                    4.96      1.99      1.1 
 Bq                    4.96      1.99      1.3 
 Bq                    4.96      1.99      1.5 
 Bq                    4.96      1.99      1.7 
 Bq                    4.96      1.99      1.9 
 Bq                    4.96      1.99      2.1 
 Bq                    4.96      1.99      2.3 
 Bq                    4.96      1.99      2.5 
 Bq                    4.96      1.99      2.7 
 Bq                    4.96      1.99      2.9 
 Bq                    4.96      1.99      3.1 
 Bq                    4.96      2.19     -2.7 
 Bq                    4.96      2.19     -2.5 
 Bq                    4.96      2.19     -2.3 
 Bq                    4.96      2.19     -2.1 
 Bq                    4.96      2.19     -1.9 
 Bq                    4.96      2.19     -1.7 
 Bq                    4.96      2.19     -1.5 
 Bq                    4.96      2.19     -1.3 
 Bq                    4.96      2.19     -1.1 
 Bq                    4.96      2.19     -0.9 
 Bq                    4.96      2.19     -0.7 
 Bq                    4.96      2.19     -0.5 
 Bq                    4.96      2.19     -0.3 
 Bq                    4.96      2.19     -0.1 
 Bq                    4.96      2.19      0.1 
 Bq                    4.96      2.19      0.3 
 Bq                    4.96      2.19      0.5 
 Bq                    4.96      2.19      0.7 
 Bq                    4.96      2.19      0.9 
 Bq                    4.96      2.19      1.1 
 Bq                    4.96      2.19      1.3 
 Bq                    4.96      2.19      1.5 
 Bq                    4.96      2.19      1.7 
 Bq                    4.96      2.19      1.9 
 Bq                    4.96      2.19      2.1 
 Bq                    4.96      2.19      2.3 
 Bq                    4.96      2.19      2.5 
 Bq                    4.96      2.19      2.7 
 Bq                    4.96      2.19      2.9 
 Bq                    4.96      2.19      3.1 
 Bq                    4.96      2.39     -2.7 
 Bq                    4.96      2.39     -2.5 
 Bq                    4.96      2.39     -2.3 
 Bq                    4.96      2.39     -2.1 
 Bq                    4.96      2.39     -1.9 
 Bq                    4.96      2.39     -1.7 
 Bq                    4.96      2.39     -1.5 
 Bq                    4.96      2.39     -1.3 
 Bq                    4.96      2.39     -1.1 
 Bq                    4.96      2.39     -0.9 
 Bq                    4.96      2.39     -0.7 
 Bq                    4.96      2.39     -0.5 
 Bq                    4.96      2.39     -0.3 
 Bq                    4.96      2.39     -0.1 
 Bq                    4.96      2.39      0.1 
 Bq                    4.96      2.39      0.3 
 Bq                    4.96      2.39      0.5 
 Bq                    4.96      2.39      0.7 
 Bq                    4.96      2.39      0.9 
 Bq                    4.96      2.39      1.1 
 Bq                    4.96      2.39      1.3 
 Bq                    4.96      2.39      1.5 
 Bq                    4.96      2.39      1.7 
 Bq                    4.96      2.39      1.9 
 Bq                    4.96      2.39      2.1 
 Bq                    4.96      2.39      2.3 
 Bq                    4.96      2.39      2.5 
 Bq                    4.96      2.39      2.7 
 Bq                    4.96      2.39      2.9 
 Bq                    4.96      2.39      3.1 
 Bq                    4.96      2.59     -2.7 
 Bq                    4.96      2.59     -2.5 
 Bq                    4.96      2.59     -2.3 
 Bq                    4.96      2.59     -2.1 
 Bq                    4.96      2.59     -1.9 
 Bq                    4.96      2.59     -1.7 
 Bq                    4.96      2.59     -1.5 
 Bq                    4.96      2.59     -1.3 
 Bq                    4.96      2.59     -1.1 
 Bq                    4.96      2.59     -0.9 
 Bq                    4.96      2.59     -0.7 
 Bq                    4.96      2.59     -0.5 
 Bq                    4.96      2.59     -0.3 
 Bq                    4.96      2.59     -0.1 
 Bq                    4.96      2.59      0.1 
 Bq                    4.96      2.59      0.3 
 Bq                    4.96      2.59      0.5 
 Bq                    4.96      2.59      0.7 
 Bq                    4.96      2.59      0.9 
 Bq                    4.96      2.59      1.1 
 Bq                    4.96      2.59      1.3 
 Bq                    4.96      2.59      1.5 
 Bq                    4.96      2.59      1.7 
 Bq                    4.96      2.59      1.9 
 Bq                    4.96      2.59      2.1 
 Bq                    4.96      2.59      2.3 
 Bq                    4.96      2.59      2.5 
 Bq                    4.96      2.59      2.7 
 Bq                    4.96      2.59      2.9 
 Bq                    4.96      2.59      3.1 
 Bq                    4.96      2.79     -2.7 
 Bq                    4.96      2.79     -2.5 
 Bq                    4.96      2.79     -2.3 
 Bq                    4.96      2.79     -2.1 
 Bq                    4.96      2.79     -1.9 
 Bq                    4.96      2.79     -1.7 
 Bq                    4.96      2.79     -1.5 
 Bq                    4.96      2.79     -1.3 
 Bq                    4.96      2.79     -1.1 
 Bq                    4.96      2.79     -0.9 
 Bq                    4.96      2.79     -0.7 
 Bq                    4.96      2.79     -0.5 
 Bq                    4.96      2.79     -0.3 
 Bq                    4.96      2.79     -0.1 
 Bq                    4.96      2.79      0.1 
 Bq                    4.96      2.79      0.3 
 Bq                    4.96      2.79      0.5 
 Bq                    4.96      2.79      0.7 
 Bq                    4.96      2.79      0.9 
 Bq                    4.96      2.79      1.1 
 Bq                    4.96      2.79      1.3 
 Bq                    4.96      2.79      1.5 
 Bq                    4.96      2.79      1.7 
 Bq                    4.96      2.79      1.9 
 Bq                    4.96      2.79      2.1 
 Bq                    4.96      2.79      2.3 
 Bq                    4.96      2.79      2.5 
 Bq                    4.96      2.79      2.7 
 Bq                    4.96      2.79      2.9 
 Bq                    4.96      2.79      3.1 
 Bq                    4.96      2.99     -2.7 
 Bq                    4.96      2.99     -2.5 
 Bq                    4.96      2.99     -2.3 
 Bq                    4.96      2.99     -2.1 
 Bq                    4.96      2.99     -1.9 
 Bq                    4.96      2.99     -1.7 
 Bq                    4.96      2.99     -1.5 
 Bq                    4.96      2.99     -1.3 
 Bq                    4.96      2.99     -1.1 
 Bq                    4.96      2.99     -0.9 
 Bq                    4.96      2.99     -0.7 
 Bq                    4.96      2.99     -0.5 
 Bq                    4.96      2.99     -0.3 
 Bq                    4.96      2.99     -0.1 
 Bq                    4.96      2.99      0.1 
 Bq                    4.96      2.99      0.3 
 Bq                    4.96      2.99      0.5 
 Bq                    4.96      2.99      0.7 
 Bq                    4.96      2.99      0.9 
 Bq                    4.96      2.99      1.1 
 Bq                    4.96      2.99      1.3 
 Bq                    4.96      2.99      1.5 
 Bq                    4.96      2.99      1.7 
 Bq                    4.96      2.99      1.9 
 Bq                    4.96      2.99      2.1 
 Bq                    4.96      2.99      2.3 
 Bq                    4.96      2.99      2.5 
 Bq                    4.96      2.99      2.7 
 Bq                    4.96      2.99      2.9 
 Bq                    4.96      2.99      3.1 
 Bq                    4.96      3.19     -2.7 
 Bq                    4.96      3.19     -2.5 
 Bq                    4.96      3.19     -2.3 
 Bq                    4.96      3.19     -2.1 
 Bq                    4.96      3.19     -1.9 
 Bq                    4.96      3.19     -1.7 
 Bq                    4.96      3.19     -1.5 
 Bq                    4.96      3.19     -1.3 
 Bq                    4.96      3.19     -1.1 
 Bq                    4.96      3.19     -0.9 
 Bq                    4.96      3.19     -0.7 
 Bq                    4.96      3.19     -0.5 
 Bq                    4.96      3.19     -0.3 
 Bq                    4.96      3.19     -0.1 
 Bq                    4.96      3.19      0.1 
 Bq                    4.96      3.19      0.3 
 Bq                    4.96      3.19      0.5 
 Bq                    4.96      3.19      0.7 
 Bq                    4.96      3.19      0.9 
 Bq                    4.96      3.19      1.1 
 Bq                    4.96      3.19      1.3 
 Bq                    4.96      3.19      1.5 
 Bq                    4.96      3.19      1.7 
 Bq                    4.96      3.19      1.9 
 Bq                    4.96      3.19      2.1 
 Bq                    4.96      3.19      2.3 
 Bq                    4.96      3.19      2.5 
 Bq                    4.96      3.19      2.7 
 Bq                    4.96      3.19      2.9 
 Bq                    4.96      3.19      3.1 
 Bq                    4.96      3.39     -2.7 
 Bq                    4.96      3.39     -2.5 
 Bq                    4.96      3.39     -2.3 
 Bq                    4.96      3.39     -2.1 
 Bq                    4.96      3.39     -1.9 
 Bq                    4.96      3.39     -1.7 
 Bq                    4.96      3.39     -1.5 
 Bq                    4.96      3.39     -1.3 
 Bq                    4.96      3.39     -1.1 
 Bq                    4.96      3.39     -0.9 
 Bq                    4.96      3.39     -0.7 
 Bq                    4.96      3.39     -0.5 
 Bq                    4.96      3.39     -0.3 
 Bq                    4.96      3.39     -0.1 
 Bq                    4.96      3.39      0.1 
 Bq                    4.96      3.39      0.3 
 Bq                    4.96      3.39      0.5 
 Bq                    4.96      3.39      0.7 
 Bq                    4.96      3.39      0.9 
 Bq                    4.96      3.39      1.1 
 Bq                    4.96      3.39      1.3 
 Bq                    4.96      3.39      1.5 
 Bq                    4.96      3.39      1.7 
 Bq                    4.96      3.39      1.9 
 Bq                    4.96      3.39      2.1 
 Bq                    4.96      3.39      2.3 
 Bq                    4.96      3.39      2.5 
 Bq                    4.96      3.39      2.7 
 Bq                    4.96      3.39      2.9 
 Bq                    4.96      3.39      3.1 
 Bq                    4.96      3.59     -2.7 
 Bq                    4.96      3.59     -2.5 
 Bq                    4.96      3.59     -2.3 
 Bq                    4.96      3.59     -2.1 
 Bq                    4.96      3.59     -1.9 
 Bq                    4.96      3.59     -1.7 
 Bq                    4.96      3.59     -1.5 
 Bq                    4.96      3.59     -1.3 
 Bq                    4.96      3.59     -1.1 
 Bq                    4.96      3.59     -0.9 
 Bq                    4.96      3.59     -0.7 
 Bq                    4.96      3.59     -0.5 
 Bq                    4.96      3.59     -0.3 
 Bq                    4.96      3.59     -0.1 
 Bq                    4.96      3.59      0.1 
 Bq                    4.96      3.59      0.3 
 Bq                    4.96      3.59      0.5 
 Bq                    4.96      3.59      0.7 
 Bq                    4.96      3.59      0.9 
 Bq                    4.96      3.59      1.1 
 Bq                    4.96      3.59      1.3 
 Bq                    4.96      3.59      1.5 
 Bq                    4.96      3.59      1.7 
 Bq                    4.96      3.59      1.9 
 Bq                    4.96      3.59      2.1 
 Bq                    4.96      3.59      2.3 
 Bq                    4.96      3.59      2.5 
 Bq                    4.96      3.59      2.7 
 Bq                    4.96      3.59      2.9 
 Bq                    4.96      3.59      3.1 
 Bq                    4.96      3.79     -2.7 
 Bq                    4.96      3.79     -2.5 
 Bq                    4.96      3.79     -2.3 
 Bq                    4.96      3.79     -2.1 
 Bq                    4.96      3.79     -1.9 
 Bq                    4.96      3.79     -1.7 
 Bq                    4.96      3.79     -1.5 
 Bq                    4.96      3.79     -1.3 
 Bq                    4.96      3.79     -1.1 
 Bq                    4.96      3.79     -0.9 
 Bq                    4.96      3.79     -0.7 
 Bq                    4.96      3.79     -0.5 
 Bq                    4.96      3.79     -0.3 
 Bq                    4.96      3.79     -0.1 
 Bq                    4.96      3.79      0.1 
 Bq                    4.96      3.79      0.3 
 Bq                    4.96      3.79      0.5 
 Bq                    4.96      3.79      0.7 
 Bq                    4.96      3.79      0.9 
 Bq                    4.96      3.79      1.1 
 Bq                    4.96      3.79      1.3 
 Bq                    4.96      3.79      1.5 
 Bq                    4.96      3.79      1.7 
 Bq                    4.96      3.79      1.9 
 Bq                    4.96      3.79      2.1 
 Bq                    4.96      3.79      2.3 
 Bq                    4.96      3.79      2.5 
 Bq                    4.96      3.79      2.7 
 Bq                    4.96      3.79      2.9 
 Bq                    4.96      3.79      3.1 
 Bq                    4.96      3.99     -2.7 
 Bq                    4.96      3.99     -2.5 
 Bq                    4.96      3.99     -2.3 
 Bq                    4.96      3.99     -2.1 
 Bq                    4.96      3.99     -1.9 
 Bq                    4.96      3.99     -1.7 
 Bq                    4.96      3.99     -1.5 
 Bq                    4.96      3.99     -1.3 
 Bq                    4.96      3.99     -1.1 
 Bq                    4.96      3.99     -0.9 
 Bq                    4.96      3.99     -0.7 
 Bq                    4.96      3.99     -0.5 
 Bq                    4.96      3.99     -0.3 
 Bq                    4.96      3.99     -0.1 
 Bq                    4.96      3.99      0.1 
 Bq                    4.96      3.99      0.3 
 Bq                    4.96      3.99      0.5 
 Bq                    4.96      3.99      0.7 
 Bq                    4.96      3.99      0.9 
 Bq                    4.96      3.99      1.1 
 Bq                    4.96      3.99      1.3 
 Bq                    4.96      3.99      1.5 
 Bq                    4.96      3.99      1.7 
 Bq                    4.96      3.99      1.9 
 Bq                    4.96      3.99      2.1 
 Bq                    4.96      3.99      2.3 
 Bq                    4.96      3.99      2.5 
 Bq                    4.96      3.99      2.7 
 Bq                    4.96      3.99      2.9 
 Bq                    4.96      3.99      3.1 
 Bq                    4.96      4.19     -2.7 
 Bq                    4.96      4.19     -2.5 
 Bq                    4.96      4.19     -2.3 
 Bq                    4.96      4.19     -2.1 
 Bq                    4.96      4.19     -1.9 
 Bq                    4.96      4.19     -1.7 
 Bq                    4.96      4.19     -1.5 
 Bq                    4.96      4.19     -1.3 
 Bq                    4.96      4.19     -1.1 
 Bq                    4.96      4.19     -0.9 
 Bq                    4.96      4.19     -0.7 
 Bq                    4.96      4.19     -0.5 
 Bq                    4.96      4.19     -0.3 
 Bq                    4.96      4.19     -0.1 
 Bq                    4.96      4.19      0.1 
 Bq                    4.96      4.19      0.3 
 Bq                    4.96      4.19      0.5 
 Bq                    4.96      4.19      0.7 
 Bq                    4.96      4.19      0.9 
 Bq                    4.96      4.19      1.1 
 Bq                    4.96      4.19      1.3 
 Bq                    4.96      4.19      1.5 
 Bq                    4.96      4.19      1.7 
 Bq                    4.96      4.19      1.9 
 Bq                    4.96      4.19      2.1 
 Bq                    4.96      4.19      2.3 
 Bq                    4.96      4.19      2.5 
 Bq                    4.96      4.19      2.7 
 Bq                    4.96      4.19      2.9 
 Bq                    4.96      4.19      3.1 
 Bq                    4.96      4.39     -2.7 
 Bq                    4.96      4.39     -2.5 
 Bq                    4.96      4.39     -2.3 
 Bq                    4.96      4.39     -2.1 
 Bq                    4.96      4.39     -1.9 
 Bq                    4.96      4.39     -1.7 
 Bq                    4.96      4.39     -1.5 
 Bq                    4.96      4.39     -1.3 
 Bq                    4.96      4.39     -1.1 
 Bq                    4.96      4.39     -0.9 
 Bq                    4.96      4.39     -0.7 
 Bq                    4.96      4.39     -0.5 
 Bq                    4.96      4.39     -0.3 
 Bq                    4.96      4.39     -0.1 
 Bq                    4.96      4.39      0.1 
 Bq                    4.96      4.39      0.3 
 Bq                    4.96      4.39      0.5 
 Bq                    4.96      4.39      0.7 
 Bq                    4.96      4.39      0.9 
 Bq                    4.96      4.39      1.1 
 Bq                    4.96      4.39      1.3 
 Bq                    4.96      4.39      1.5 
 Bq                    4.96      4.39      1.7 
 Bq                    4.96      4.39      1.9 
 Bq                    4.96      4.39      2.1 
 Bq                    4.96      4.39      2.3 
 Bq                    4.96      4.39      2.5 
 Bq                    4.96      4.39      2.7 
 Bq                    4.96      4.39      2.9 
 Bq                    4.96      4.39      3.1 
 Bq                    4.96      4.59     -2.7 
 Bq                    4.96      4.59     -2.5 
 Bq                    4.96      4.59     -2.3 
 Bq                    4.96      4.59     -2.1 
 Bq                    4.96      4.59     -1.9 
 Bq                    4.96      4.59     -1.7 
 Bq                    4.96      4.59     -1.5 
 Bq                    4.96      4.59     -1.3 
 Bq                    4.96      4.59     -1.1 
 Bq                    4.96      4.59     -0.9 
 Bq                    4.96      4.59     -0.7 
 Bq                    4.96      4.59     -0.5 
 Bq                    4.96      4.59     -0.3 
 Bq                    4.96      4.59     -0.1 
 Bq                    4.96      4.59      0.1 
 Bq                    4.96      4.59      0.3 
 Bq                    4.96      4.59      0.5 
 Bq                    4.96      4.59      0.7 
 Bq                    4.96      4.59      0.9 
 Bq                    4.96      4.59      1.1 
 Bq                    4.96      4.59      1.3 
 Bq                    4.96      4.59      1.5 
 Bq                    4.96      4.59      1.7 
 Bq                    4.96      4.59      1.9 
 Bq                    4.96      4.59      2.1 
 Bq                    4.96      4.59      2.3 
 Bq                    4.96      4.59      2.5 
 Bq                    4.96      4.59      2.7 
 Bq                    4.96      4.59      2.9 
 Bq                    4.96      4.59      3.1 
 Bq                    5.16     -4.81     -2.7 
 Bq                    5.16     -4.81     -2.5 
 Bq                    5.16     -4.81     -2.3 
 Bq                    5.16     -4.81     -2.1 
 Bq                    5.16     -4.81     -1.9 
 Bq                    5.16     -4.81     -1.7 
 Bq                    5.16     -4.81     -1.5 
 Bq                    5.16     -4.81     -1.3 
 Bq                    5.16     -4.81     -1.1 
 Bq                    5.16     -4.81     -0.9 
 Bq                    5.16     -4.81     -0.7 
 Bq                    5.16     -4.81     -0.5 
 Bq                    5.16     -4.81     -0.3 
 Bq                    5.16     -4.81     -0.1 
 Bq                    5.16     -4.81      0.1 
 Bq                    5.16     -4.81      0.3 
 Bq                    5.16     -4.81      0.5 
 Bq                    5.16     -4.81      0.7 
 Bq                    5.16     -4.81      0.9 
 Bq                    5.16     -4.81      1.1 
 Bq                    5.16     -4.81      1.3 
 Bq                    5.16     -4.81      1.5 
 Bq                    5.16     -4.81      1.7 
 Bq                    5.16     -4.81      1.9 
 Bq                    5.16     -4.81      2.1 
 Bq                    5.16     -4.81      2.3 
 Bq                    5.16     -4.81      2.5 
 Bq                    5.16     -4.81      2.7 
 Bq                    5.16     -4.81      2.9 
 Bq                    5.16     -4.81      3.1 
 Bq                    5.16     -4.61     -2.7 
 Bq                    5.16     -4.61     -2.5 
 Bq                    5.16     -4.61     -2.3 
 Bq                    5.16     -4.61     -2.1 
 Bq                    5.16     -4.61     -1.9 
 Bq                    5.16     -4.61     -1.7 
 Bq                    5.16     -4.61     -1.5 
 Bq                    5.16     -4.61     -1.3 
 Bq                    5.16     -4.61     -1.1 
 Bq                    5.16     -4.61     -0.9 
 Bq                    5.16     -4.61     -0.7 
 Bq                    5.16     -4.61     -0.5 
 Bq                    5.16     -4.61     -0.3 
 Bq                    5.16     -4.61     -0.1 
 Bq                    5.16     -4.61      0.1 
 Bq                    5.16     -4.61      0.3 
 Bq                    5.16     -4.61      0.5 
 Bq                    5.16     -4.61      0.7 
 Bq                    5.16     -4.61      0.9 
 Bq                    5.16     -4.61      1.1 
 Bq                    5.16     -4.61      1.3 
 Bq                    5.16     -4.61      1.5 
 Bq                    5.16     -4.61      1.7 
 Bq                    5.16     -4.61      1.9 
 Bq                    5.16     -4.61      2.1 
 Bq                    5.16     -4.61      2.3 
 Bq                    5.16     -4.61      2.5 
 Bq                    5.16     -4.61      2.7 
 Bq                    5.16     -4.61      2.9 
 Bq                    5.16     -4.61      3.1 
 Bq                    5.16     -4.41     -2.7 
 Bq                    5.16     -4.41     -2.5 
 Bq                    5.16     -4.41     -2.3 
 Bq                    5.16     -4.41     -2.1 
 Bq                    5.16     -4.41     -1.9 
 Bq                    5.16     -4.41     -1.7 
 Bq                    5.16     -4.41     -1.5 
 Bq                    5.16     -4.41     -1.3 
 Bq                    5.16     -4.41     -1.1 
 Bq                    5.16     -4.41     -0.9 
 Bq                    5.16     -4.41     -0.7 
 Bq                    5.16     -4.41     -0.5 
 Bq                    5.16     -4.41     -0.3 
 Bq                    5.16     -4.41     -0.1 
 Bq                    5.16     -4.41      0.1 
 Bq                    5.16     -4.41      0.3 
 Bq                    5.16     -4.41      0.5 
 Bq                    5.16     -4.41      0.7 
 Bq                    5.16     -4.41      0.9 
 Bq                    5.16     -4.41      1.1 
 Bq                    5.16     -4.41      1.3 
 Bq                    5.16     -4.41      1.5 
 Bq                    5.16     -4.41      1.7 
 Bq                    5.16     -4.41      1.9 
 Bq                    5.16     -4.41      2.1 
 Bq                    5.16     -4.41      2.3 
 Bq                    5.16     -4.41      2.5 
 Bq                    5.16     -4.41      2.7 
 Bq                    5.16     -4.41      2.9 
 Bq                    5.16     -4.41      3.1 
 Bq                    5.16     -4.21     -2.7 
 Bq                    5.16     -4.21     -2.5 
 Bq                    5.16     -4.21     -2.3 
 Bq                    5.16     -4.21     -2.1 
 Bq                    5.16     -4.21     -1.9 
 Bq                    5.16     -4.21     -1.7 
 Bq                    5.16     -4.21     -1.5 
 Bq                    5.16     -4.21     -1.3 
 Bq                    5.16     -4.21     -1.1 
 Bq                    5.16     -4.21     -0.9 
 Bq                    5.16     -4.21     -0.7 
 Bq                    5.16     -4.21     -0.5 
 Bq                    5.16     -4.21     -0.3 
 Bq                    5.16     -4.21     -0.1 
 Bq                    5.16     -4.21      0.1 
 Bq                    5.16     -4.21      0.3 
 Bq                    5.16     -4.21      0.5 
 Bq                    5.16     -4.21      0.7 
 Bq                    5.16     -4.21      0.9 
 Bq                    5.16     -4.21      1.1 
 Bq                    5.16     -4.21      1.3 
 Bq                    5.16     -4.21      1.5 
 Bq                    5.16     -4.21      1.7 
 Bq                    5.16     -4.21      1.9 
 Bq                    5.16     -4.21      2.1 
 Bq                    5.16     -4.21      2.3 
 Bq                    5.16     -4.21      2.5 
 Bq                    5.16     -4.21      2.7 
 Bq                    5.16     -4.21      2.9 
 Bq                    5.16     -4.21      3.1 
 Bq                    5.16     -4.01     -2.7 
 Bq                    5.16     -4.01     -2.5 
 Bq                    5.16     -4.01     -2.3 
 Bq                    5.16     -4.01     -2.1 
 Bq                    5.16     -4.01     -1.9 
 Bq                    5.16     -4.01     -1.7 
 Bq                    5.16     -4.01     -1.5 
 Bq                    5.16     -4.01     -1.3 
 Bq                    5.16     -4.01     -1.1 
 Bq                    5.16     -4.01     -0.9 
 Bq                    5.16     -4.01     -0.7 
 Bq                    5.16     -4.01     -0.5 
 Bq                    5.16     -4.01     -0.3 
 Bq                    5.16     -4.01     -0.1 
 Bq                    5.16     -4.01      0.1 
 Bq                    5.16     -4.01      0.3 
 Bq                    5.16     -4.01      0.5 
 Bq                    5.16     -4.01      0.7 
 Bq                    5.16     -4.01      0.9 
 Bq                    5.16     -4.01      1.1 
 Bq                    5.16     -4.01      1.3 
 Bq                    5.16     -4.01      1.5 
 Bq                    5.16     -4.01      1.7 
 Bq                    5.16     -4.01      1.9 
 Bq                    5.16     -4.01      2.1 
 Bq                    5.16     -4.01      2.3 
 Bq                    5.16     -4.01      2.5 
 Bq                    5.16     -4.01      2.7 
 Bq                    5.16     -4.01      2.9 
 Bq                    5.16     -4.01      3.1 
 Bq                    5.16     -3.81     -2.7 
 Bq                    5.16     -3.81     -2.5 
 Bq                    5.16     -3.81     -2.3 
 Bq                    5.16     -3.81     -2.1 
 Bq                    5.16     -3.81     -1.9 
 Bq                    5.16     -3.81     -1.7 
 Bq                    5.16     -3.81     -1.5 
 Bq                    5.16     -3.81     -1.3 
 Bq                    5.16     -3.81     -1.1 
 Bq                    5.16     -3.81     -0.9 
 Bq                    5.16     -3.81     -0.7 
 Bq                    5.16     -3.81     -0.5 
 Bq                    5.16     -3.81     -0.3 
 Bq                    5.16     -3.81     -0.1 
 Bq                    5.16     -3.81      0.1 
 Bq                    5.16     -3.81      0.3 
 Bq                    5.16     -3.81      0.5 
 Bq                    5.16     -3.81      0.7 
 Bq                    5.16     -3.81      0.9 
 Bq                    5.16     -3.81      1.1 
 Bq                    5.16     -3.81      1.3 
 Bq                    5.16     -3.81      1.5 
 Bq                    5.16     -3.81      1.7 
 Bq                    5.16     -3.81      1.9 
 Bq                    5.16     -3.81      2.1 
 Bq                    5.16     -3.81      2.3 
 Bq                    5.16     -3.81      2.5 
 Bq                    5.16     -3.81      2.7 
 Bq                    5.16     -3.81      2.9 
 Bq                    5.16     -3.81      3.1 
 Bq                    5.16     -3.61     -2.7 
 Bq                    5.16     -3.61     -2.5 
 Bq                    5.16     -3.61     -2.3 
 Bq                    5.16     -3.61     -2.1 
 Bq                    5.16     -3.61     -1.9 
 Bq                    5.16     -3.61     -1.7 
 Bq                    5.16     -3.61     -1.5 
 Bq                    5.16     -3.61     -1.3 
 Bq                    5.16     -3.61     -1.1 
 Bq                    5.16     -3.61     -0.9 
 Bq                    5.16     -3.61     -0.7 
 Bq                    5.16     -3.61     -0.5 
 Bq                    5.16     -3.61     -0.3 
 Bq                    5.16     -3.61     -0.1 
 Bq                    5.16     -3.61      0.1 
 Bq                    5.16     -3.61      0.3 
 Bq                    5.16     -3.61      0.5 
 Bq                    5.16     -3.61      0.7 
 Bq                    5.16     -3.61      0.9 
 Bq                    5.16     -3.61      1.1 
 Bq                    5.16     -3.61      1.3 
 Bq                    5.16     -3.61      1.5 
 Bq                    5.16     -3.61      1.7 
 Bq                    5.16     -3.61      1.9 
 Bq                    5.16     -3.61      2.1 
 Bq                    5.16     -3.61      2.3 
 Bq                    5.16     -3.61      2.5 
 Bq                    5.16     -3.61      2.7 
 Bq                    5.16     -3.61      2.9 
 Bq                    5.16     -3.61      3.1 
 Bq                    5.16     -3.41     -2.7 
 Bq                    5.16     -3.41     -2.5 
 Bq                    5.16     -3.41     -2.3 
 Bq                    5.16     -3.41     -2.1 
 Bq                    5.16     -3.41     -1.9 
 Bq                    5.16     -3.41     -1.7 
 Bq                    5.16     -3.41     -1.5 
 Bq                    5.16     -3.41     -1.3 
 Bq                    5.16     -3.41     -1.1 
 Bq                    5.16     -3.41     -0.9 
 Bq                    5.16     -3.41     -0.7 
 Bq                    5.16     -3.41     -0.5 
 Bq                    5.16     -3.41     -0.3 
 Bq                    5.16     -3.41     -0.1 
 Bq                    5.16     -3.41      0.1 
 Bq                    5.16     -3.41      0.3 
 Bq                    5.16     -3.41      0.5 
 Bq                    5.16     -3.41      0.7 
 Bq                    5.16     -3.41      0.9 
 Bq                    5.16     -3.41      1.1 
 Bq                    5.16     -3.41      1.3 
 Bq                    5.16     -3.41      1.5 
 Bq                    5.16     -3.41      1.7 
 Bq                    5.16     -3.41      1.9 
 Bq                    5.16     -3.41      2.1 
 Bq                    5.16     -3.41      2.3 
 Bq                    5.16     -3.41      2.5 
 Bq                    5.16     -3.41      2.7 
 Bq                    5.16     -3.41      2.9 
 Bq                    5.16     -3.41      3.1 
 Bq                    5.16     -3.21     -2.7 
 Bq                    5.16     -3.21     -2.5 
 Bq                    5.16     -3.21     -2.3 
 Bq                    5.16     -3.21     -2.1 
 Bq                    5.16     -3.21     -1.9 
 Bq                    5.16     -3.21     -1.7 
 Bq                    5.16     -3.21     -1.5 
 Bq                    5.16     -3.21     -1.3 
 Bq                    5.16     -3.21     -1.1 
 Bq                    5.16     -3.21     -0.9 
 Bq                    5.16     -3.21     -0.7 
 Bq                    5.16     -3.21     -0.5 
 Bq                    5.16     -3.21     -0.3 
 Bq                    5.16     -3.21     -0.1 
 Bq                    5.16     -3.21      0.1 
 Bq                    5.16     -3.21      0.3 
 Bq                    5.16     -3.21      0.5 
 Bq                    5.16     -3.21      0.7 
 Bq                    5.16     -3.21      0.9 
 Bq                    5.16     -3.21      1.1 
 Bq                    5.16     -3.21      1.3 
 Bq                    5.16     -3.21      1.5 
 Bq                    5.16     -3.21      1.7 
 Bq                    5.16     -3.21      1.9 
 Bq                    5.16     -3.21      2.1 
 Bq                    5.16     -3.21      2.3 
 Bq                    5.16     -3.21      2.5 
 Bq                    5.16     -3.21      2.7 
 Bq                    5.16     -3.21      2.9 
 Bq                    5.16     -3.21      3.1 
 Bq                    5.16     -3.01     -2.7 
 Bq                    5.16     -3.01     -2.5 
 Bq                    5.16     -3.01     -2.3 
 Bq                    5.16     -3.01     -2.1 
 Bq                    5.16     -3.01     -1.9 
 Bq                    5.16     -3.01     -1.7 
 Bq                    5.16     -3.01     -1.5 
 Bq                    5.16     -3.01     -1.3 
 Bq                    5.16     -3.01     -1.1 
 Bq                    5.16     -3.01     -0.9 
 Bq                    5.16     -3.01     -0.7 
 Bq                    5.16     -3.01     -0.5 
 Bq                    5.16     -3.01     -0.3 
 Bq                    5.16     -3.01     -0.1 
 Bq                    5.16     -3.01      0.1 
 Bq                    5.16     -3.01      0.3 
 Bq                    5.16     -3.01      0.5 
 Bq                    5.16     -3.01      0.7 
 Bq                    5.16     -3.01      0.9 
 Bq                    5.16     -3.01      1.1 
 Bq                    5.16     -3.01      1.3 
 Bq                    5.16     -3.01      1.5 
 Bq                    5.16     -3.01      1.7 
 Bq                    5.16     -3.01      1.9 
 Bq                    5.16     -3.01      2.1 
 Bq                    5.16     -3.01      2.3 
 Bq                    5.16     -3.01      2.5 
 Bq                    5.16     -3.01      2.7 
 Bq                    5.16     -3.01      2.9 
 Bq                    5.16     -3.01      3.1 
 Bq                    5.16     -2.81     -2.7 
 Bq                    5.16     -2.81     -2.5 
 Bq                    5.16     -2.81     -2.3 
 Bq                    5.16     -2.81     -2.1 
 Bq                    5.16     -2.81     -1.9 
 Bq                    5.16     -2.81     -1.7 
 Bq                    5.16     -2.81     -1.5 
 Bq                    5.16     -2.81     -1.3 
 Bq                    5.16     -2.81     -1.1 
 Bq                    5.16     -2.81     -0.9 
 Bq                    5.16     -2.81     -0.7 
 Bq                    5.16     -2.81     -0.5 
 Bq                    5.16     -2.81     -0.3 
 Bq                    5.16     -2.81     -0.1 
 Bq                    5.16     -2.81      0.1 
 Bq                    5.16     -2.81      0.3 
 Bq                    5.16     -2.81      0.5 
 Bq                    5.16     -2.81      0.7 
 Bq                    5.16     -2.81      0.9 
 Bq                    5.16     -2.81      1.1 
 Bq                    5.16     -2.81      1.3 
 Bq                    5.16     -2.81      1.5 
 Bq                    5.16     -2.81      1.7 
 Bq                    5.16     -2.81      1.9 
 Bq                    5.16     -2.81      2.1 
 Bq                    5.16     -2.81      2.3 
 Bq                    5.16     -2.81      2.5 
 Bq                    5.16     -2.81      2.7 
 Bq                    5.16     -2.81      2.9 
 Bq                    5.16     -2.81      3.1 
 Bq                    5.16     -2.61     -2.7 
 Bq                    5.16     -2.61     -2.5 
 Bq                    5.16     -2.61     -2.3 
 Bq                    5.16     -2.61     -2.1 
 Bq                    5.16     -2.61     -1.9 
 Bq                    5.16     -2.61     -1.7 
 Bq                    5.16     -2.61     -1.5 
 Bq                    5.16     -2.61     -1.3 
 Bq                    5.16     -2.61     -1.1 
 Bq                    5.16     -2.61     -0.9 
 Bq                    5.16     -2.61     -0.7 
 Bq                    5.16     -2.61     -0.5 
 Bq                    5.16     -2.61     -0.3 
 Bq                    5.16     -2.61     -0.1 
 Bq                    5.16     -2.61      0.1 
 Bq                    5.16     -2.61      0.3 
 Bq                    5.16     -2.61      0.5 
 Bq                    5.16     -2.61      0.7 
 Bq                    5.16     -2.61      0.9 
 Bq                    5.16     -2.61      1.1 
 Bq                    5.16     -2.61      1.3 
 Bq                    5.16     -2.61      1.5 
 Bq                    5.16     -2.61      1.7 
 Bq                    5.16     -2.61      1.9 
 Bq                    5.16     -2.61      2.1 
 Bq                    5.16     -2.61      2.3 
 Bq                    5.16     -2.61      2.5 
 Bq                    5.16     -2.61      2.7 
 Bq                    5.16     -2.61      2.9 
 Bq                    5.16     -2.61      3.1 
 Bq                    5.16     -2.41     -2.7 
 Bq                    5.16     -2.41     -2.5 
 Bq                    5.16     -2.41     -2.3 
 Bq                    5.16     -2.41     -2.1 
 Bq                    5.16     -2.41     -1.9 
 Bq                    5.16     -2.41     -1.7 
 Bq                    5.16     -2.41     -1.5 
 Bq                    5.16     -2.41     -1.3 
 Bq                    5.16     -2.41     -1.1 
 Bq                    5.16     -2.41     -0.9 
 Bq                    5.16     -2.41     -0.7 
 Bq                    5.16     -2.41     -0.5 
 Bq                    5.16     -2.41     -0.3 
 Bq                    5.16     -2.41     -0.1 
 Bq                    5.16     -2.41      0.1 
 Bq                    5.16     -2.41      0.3 
 Bq                    5.16     -2.41      0.5 
 Bq                    5.16     -2.41      0.7 
 Bq                    5.16     -2.41      0.9 
 Bq                    5.16     -2.41      1.1 
 Bq                    5.16     -2.41      1.3 
 Bq                    5.16     -2.41      1.5 
 Bq                    5.16     -2.41      1.7 
 Bq                    5.16     -2.41      1.9 
 Bq                    5.16     -2.41      2.1 
 Bq                    5.16     -2.41      2.3 
 Bq                    5.16     -2.41      2.5 
 Bq                    5.16     -2.41      2.7 
 Bq                    5.16     -2.41      2.9 
 Bq                    5.16     -2.41      3.1 
 Bq                    5.16     -2.21     -2.7 
 Bq                    5.16     -2.21     -2.5 
 Bq                    5.16     -2.21     -2.3 
 Bq                    5.16     -2.21     -2.1 
 Bq                    5.16     -2.21     -1.9 
 Bq                    5.16     -2.21     -1.7 
 Bq                    5.16     -2.21     -1.5 
 Bq                    5.16     -2.21     -1.3 
 Bq                    5.16     -2.21     -1.1 
 Bq                    5.16     -2.21     -0.9 
 Bq                    5.16     -2.21     -0.7 
 Bq                    5.16     -2.21     -0.5 
 Bq                    5.16     -2.21     -0.3 
 Bq                    5.16     -2.21     -0.1 
 Bq                    5.16     -2.21      0.1 
 Bq                    5.16     -2.21      0.3 
 Bq                    5.16     -2.21      0.5 
 Bq                    5.16     -2.21      0.7 
 Bq                    5.16     -2.21      0.9 
 Bq                    5.16     -2.21      1.1 
 Bq                    5.16     -2.21      1.3 
 Bq                    5.16     -2.21      1.5 
 Bq                    5.16     -2.21      1.7 
 Bq                    5.16     -2.21      1.9 
 Bq                    5.16     -2.21      2.1 
 Bq                    5.16     -2.21      2.3 
 Bq                    5.16     -2.21      2.5 
 Bq                    5.16     -2.21      2.7 
 Bq                    5.16     -2.21      2.9 
 Bq                    5.16     -2.21      3.1 
 Bq                    5.16     -2.01     -2.7 
 Bq                    5.16     -2.01     -2.5 
 Bq                    5.16     -2.01     -2.3 
 Bq                    5.16     -2.01     -2.1 
 Bq                    5.16     -2.01     -1.9 
 Bq                    5.16     -2.01     -1.7 
 Bq                    5.16     -2.01     -1.5 
 Bq                    5.16     -2.01     -1.3 
 Bq                    5.16     -2.01     -1.1 
 Bq                    5.16     -2.01     -0.9 
 Bq                    5.16     -2.01     -0.7 
 Bq                    5.16     -2.01     -0.5 
 Bq                    5.16     -2.01     -0.3 
 Bq                    5.16     -2.01     -0.1 
 Bq                    5.16     -2.01      0.1 
 Bq                    5.16     -2.01      0.3 
 Bq                    5.16     -2.01      0.5 
 Bq                    5.16     -2.01      0.7 
 Bq                    5.16     -2.01      0.9 
 Bq                    5.16     -2.01      1.1 
 Bq                    5.16     -2.01      1.3 
 Bq                    5.16     -2.01      1.5 
 Bq                    5.16     -2.01      1.7 
 Bq                    5.16     -2.01      1.9 
 Bq                    5.16     -2.01      2.1 
 Bq                    5.16     -2.01      2.3 
 Bq                    5.16     -2.01      2.5 
 Bq                    5.16     -2.01      2.7 
 Bq                    5.16     -2.01      2.9 
 Bq                    5.16     -2.01      3.1 
 Bq                    5.16     -1.81     -2.7 
 Bq                    5.16     -1.81     -2.5 
 Bq                    5.16     -1.81     -2.3 
 Bq                    5.16     -1.81     -2.1 
 Bq                    5.16     -1.81     -1.9 
 Bq                    5.16     -1.81     -1.7 
 Bq                    5.16     -1.81     -1.5 
 Bq                    5.16     -1.81     -1.3 
 Bq                    5.16     -1.81     -1.1 
 Bq                    5.16     -1.81     -0.9 
 Bq                    5.16     -1.81     -0.7 
 Bq                    5.16     -1.81     -0.5 
 Bq                    5.16     -1.81     -0.3 
 Bq                    5.16     -1.81     -0.1 
 Bq                    5.16     -1.81      0.1 
 Bq                    5.16     -1.81      0.3 
 Bq                    5.16     -1.81      0.5 
 Bq                    5.16     -1.81      0.7 
 Bq                    5.16     -1.81      0.9 
 Bq                    5.16     -1.81      1.1 
 Bq                    5.16     -1.81      1.3 
 Bq                    5.16     -1.81      1.5 
 Bq                    5.16     -1.81      1.7 
 Bq                    5.16     -1.81      1.9 
 Bq                    5.16     -1.81      2.1 
 Bq                    5.16     -1.81      2.3 
 Bq                    5.16     -1.81      2.5 
 Bq                    5.16     -1.81      2.7 
 Bq                    5.16     -1.81      2.9 
 Bq                    5.16     -1.81      3.1 
 Bq                    5.16     -1.61     -2.7 
 Bq                    5.16     -1.61     -2.5 
 Bq                    5.16     -1.61     -2.3 
 Bq                    5.16     -1.61     -2.1 
 Bq                    5.16     -1.61     -1.9 
 Bq                    5.16     -1.61     -1.7 
 Bq                    5.16     -1.61     -1.5 
 Bq                    5.16     -1.61     -1.3 
 Bq                    5.16     -1.61     -1.1 
 Bq                    5.16     -1.61     -0.9 
 Bq                    5.16     -1.61     -0.7 
 Bq                    5.16     -1.61     -0.5 
 Bq                    5.16     -1.61     -0.3 
 Bq                    5.16     -1.61     -0.1 
 Bq                    5.16     -1.61      0.1 
 Bq                    5.16     -1.61      0.3 
 Bq                    5.16     -1.61      0.5 
 Bq                    5.16     -1.61      0.7 
 Bq                    5.16     -1.61      0.9 
 Bq                    5.16     -1.61      1.1 
 Bq                    5.16     -1.61      1.3 
 Bq                    5.16     -1.61      1.5 
 Bq                    5.16     -1.61      1.7 
 Bq                    5.16     -1.61      1.9 
 Bq                    5.16     -1.61      2.1 
 Bq                    5.16     -1.61      2.3 
 Bq                    5.16     -1.61      2.5 
 Bq                    5.16     -1.61      2.7 
 Bq                    5.16     -1.61      2.9 
 Bq                    5.16     -1.61      3.1 
 Bq                    5.16     -1.41     -2.7 
 Bq                    5.16     -1.41     -2.5 
 Bq                    5.16     -1.41     -2.3 
 Bq                    5.16     -1.41     -2.1 
 Bq                    5.16     -1.41     -1.9 
 Bq                    5.16     -1.41     -1.7 
 Bq                    5.16     -1.41     -1.5 
 Bq                    5.16     -1.41     -1.3 
 Bq                    5.16     -1.41     -1.1 
 Bq                    5.16     -1.41     -0.9 
 Bq                    5.16     -1.41     -0.7 
 Bq                    5.16     -1.41     -0.5 
 Bq                    5.16     -1.41     -0.3 
 Bq                    5.16     -1.41     -0.1 
 Bq                    5.16     -1.41      0.1 
 Bq                    5.16     -1.41      0.3 
 Bq                    5.16     -1.41      0.5 
 Bq                    5.16     -1.41      0.7 
 Bq                    5.16     -1.41      0.9 
 Bq                    5.16     -1.41      1.1 
 Bq                    5.16     -1.41      1.3 
 Bq                    5.16     -1.41      1.5 
 Bq                    5.16     -1.41      1.7 
 Bq                    5.16     -1.41      1.9 
 Bq                    5.16     -1.41      2.1 
 Bq                    5.16     -1.41      2.3 
 Bq                    5.16     -1.41      2.5 
 Bq                    5.16     -1.41      2.7 
 Bq                    5.16     -1.41      2.9 
 Bq                    5.16     -1.41      3.1 
 Bq                    5.16     -1.21     -2.7 
 Bq                    5.16     -1.21     -2.5 
 Bq                    5.16     -1.21     -2.3 
 Bq                    5.16     -1.21     -2.1 
 Bq                    5.16     -1.21     -1.9 
 Bq                    5.16     -1.21     -1.7 
 Bq                    5.16     -1.21     -1.5 
 Bq                    5.16     -1.21     -1.3 
 Bq                    5.16     -1.21     -1.1 
 Bq                    5.16     -1.21     -0.9 
 Bq                    5.16     -1.21     -0.7 
 Bq                    5.16     -1.21     -0.5 
 Bq                    5.16     -1.21     -0.3 
 Bq                    5.16     -1.21     -0.1 
 Bq                    5.16     -1.21      0.1 
 Bq                    5.16     -1.21      0.3 
 Bq                    5.16     -1.21      0.5 
 Bq                    5.16     -1.21      0.7 
 Bq                    5.16     -1.21      0.9 
 Bq                    5.16     -1.21      1.1 
 Bq                    5.16     -1.21      1.3 
 Bq                    5.16     -1.21      1.5 
 Bq                    5.16     -1.21      1.7 
 Bq                    5.16     -1.21      1.9 
 Bq                    5.16     -1.21      2.1 
 Bq                    5.16     -1.21      2.3 
 Bq                    5.16     -1.21      2.5 
 Bq                    5.16     -1.21      2.7 
 Bq                    5.16     -1.21      2.9 
 Bq                    5.16     -1.21      3.1 
 Bq                    5.16     -1.01     -2.7 
 Bq                    5.16     -1.01     -2.5 
 Bq                    5.16     -1.01     -2.3 
 Bq                    5.16     -1.01     -2.1 
 Bq                    5.16     -1.01     -1.9 
 Bq                    5.16     -1.01     -1.7 
 Bq                    5.16     -1.01     -1.5 
 Bq                    5.16     -1.01     -1.3 
 Bq                    5.16     -1.01     -1.1 
 Bq                    5.16     -1.01     -0.9 
 Bq                    5.16     -1.01     -0.7 
 Bq                    5.16     -1.01     -0.5 
 Bq                    5.16     -1.01     -0.3 
 Bq                    5.16     -1.01     -0.1 
 Bq                    5.16     -1.01      0.1 
 Bq                    5.16     -1.01      0.3 
 Bq                    5.16     -1.01      0.5 
 Bq                    5.16     -1.01      0.7 
 Bq                    5.16     -1.01      0.9 
 Bq                    5.16     -1.01      1.1 
 Bq                    5.16     -1.01      1.3 
 Bq                    5.16     -1.01      1.5 
 Bq                    5.16     -1.01      1.7 
 Bq                    5.16     -1.01      1.9 
 Bq                    5.16     -1.01      2.1 
 Bq                    5.16     -1.01      2.3 
 Bq                    5.16     -1.01      2.5 
 Bq                    5.16     -1.01      2.7 
 Bq                    5.16     -1.01      2.9 
 Bq                    5.16     -1.01      3.1 
 Bq                    5.16     -0.81     -2.7 
 Bq                    5.16     -0.81     -2.5 
 Bq                    5.16     -0.81     -2.3 
 Bq                    5.16     -0.81     -2.1 
 Bq                    5.16     -0.81     -1.9 
 Bq                    5.16     -0.81     -1.7 
 Bq                    5.16     -0.81     -1.5 
 Bq                    5.16     -0.81     -1.3 
 Bq                    5.16     -0.81     -1.1 
 Bq                    5.16     -0.81     -0.9 
 Bq                    5.16     -0.81     -0.7 
 Bq                    5.16     -0.81     -0.5 
 Bq                    5.16     -0.81     -0.3 
 Bq                    5.16     -0.81     -0.1 
 Bq                    5.16     -0.81      0.1 
 Bq                    5.16     -0.81      0.3 
 Bq                    5.16     -0.81      0.5 
 Bq                    5.16     -0.81      0.7 
 Bq                    5.16     -0.81      0.9 
 Bq                    5.16     -0.81      1.1 
 Bq                    5.16     -0.81      1.3 
 Bq                    5.16     -0.81      1.5 
 Bq                    5.16     -0.81      1.7 
 Bq                    5.16     -0.81      1.9 
 Bq                    5.16     -0.81      2.1 
 Bq                    5.16     -0.81      2.3 
 Bq                    5.16     -0.81      2.5 
 Bq                    5.16     -0.81      2.7 
 Bq                    5.16     -0.81      2.9 
 Bq                    5.16     -0.81      3.1 
 Bq                    5.16     -0.61     -2.7 
 Bq                    5.16     -0.61     -2.5 
 Bq                    5.16     -0.61     -2.3 
 Bq                    5.16     -0.61     -2.1 
 Bq                    5.16     -0.61     -1.9 
 Bq                    5.16     -0.61     -1.7 
 Bq                    5.16     -0.61     -1.5 
 Bq                    5.16     -0.61     -1.3 
 Bq                    5.16     -0.61     -1.1 
 Bq                    5.16     -0.61     -0.9 
 Bq                    5.16     -0.61     -0.7 
 Bq                    5.16     -0.61     -0.5 
 Bq                    5.16     -0.61     -0.3 
 Bq                    5.16     -0.61     -0.1 
 Bq                    5.16     -0.61      0.1 
 Bq                    5.16     -0.61      0.3 
 Bq                    5.16     -0.61      0.5 
 Bq                    5.16     -0.61      0.7 
 Bq                    5.16     -0.61      0.9 
 Bq                    5.16     -0.61      1.1 
 Bq                    5.16     -0.61      1.3 
 Bq                    5.16     -0.61      1.5 
 Bq                    5.16     -0.61      1.7 
 Bq                    5.16     -0.61      1.9 
 Bq                    5.16     -0.61      2.1 
 Bq                    5.16     -0.61      2.3 
 Bq                    5.16     -0.61      2.5 
 Bq                    5.16     -0.61      2.7 
 Bq                    5.16     -0.61      2.9 
 Bq                    5.16     -0.61      3.1 
 Bq                    5.16     -0.41     -2.7 
 Bq                    5.16     -0.41     -2.5 
 Bq                    5.16     -0.41     -2.3 
 Bq                    5.16     -0.41     -2.1 
 Bq                    5.16     -0.41     -1.9 
 Bq                    5.16     -0.41     -1.7 
 Bq                    5.16     -0.41     -1.5 
 Bq                    5.16     -0.41     -1.3 
 Bq                    5.16     -0.41     -1.1 
 Bq                    5.16     -0.41     -0.9 
 Bq                    5.16     -0.41     -0.7 
 Bq                    5.16     -0.41     -0.5 
 Bq                    5.16     -0.41     -0.3 
 Bq                    5.16     -0.41     -0.1 
 Bq                    5.16     -0.41      0.1 
 Bq                    5.16     -0.41      0.3 
 Bq                    5.16     -0.41      0.5 
 Bq                    5.16     -0.41      0.7 
 Bq                    5.16     -0.41      0.9 
 Bq                    5.16     -0.41      1.1 
 Bq                    5.16     -0.41      1.3 
 Bq                    5.16     -0.41      1.5 
 Bq                    5.16     -0.41      1.7 
 Bq                    5.16     -0.41      1.9 
 Bq                    5.16     -0.41      2.1 
 Bq                    5.16     -0.41      2.3 
 Bq                    5.16     -0.41      2.5 
 Bq                    5.16     -0.41      2.7 
 Bq                    5.16     -0.41      2.9 
 Bq                    5.16     -0.41      3.1 
 Bq                    5.16     -0.21     -2.7 
 Bq                    5.16     -0.21     -2.5 
 Bq                    5.16     -0.21     -2.3 
 Bq                    5.16     -0.21     -2.1 
 Bq                    5.16     -0.21     -1.9 
 Bq                    5.16     -0.21     -1.7 
 Bq                    5.16     -0.21     -1.5 
 Bq                    5.16     -0.21     -1.3 
 Bq                    5.16     -0.21     -1.1 
 Bq                    5.16     -0.21     -0.9 
 Bq                    5.16     -0.21     -0.7 
 Bq                    5.16     -0.21     -0.5 
 Bq                    5.16     -0.21     -0.3 
 Bq                    5.16     -0.21     -0.1 
 Bq                    5.16     -0.21      0.1 
 Bq                    5.16     -0.21      0.3 
 Bq                    5.16     -0.21      0.5 
 Bq                    5.16     -0.21      0.7 
 Bq                    5.16     -0.21      0.9 
 Bq                    5.16     -0.21      1.1 
 Bq                    5.16     -0.21      1.3 
 Bq                    5.16     -0.21      1.5 
 Bq                    5.16     -0.21      1.7 
 Bq                    5.16     -0.21      1.9 
 Bq                    5.16     -0.21      2.1 
 Bq                    5.16     -0.21      2.3 
 Bq                    5.16     -0.21      2.5 
 Bq                    5.16     -0.21      2.7 
 Bq                    5.16     -0.21      2.9 
 Bq                    5.16     -0.21      3.1 
 Bq                    5.16     -0.01     -2.7 
 Bq                    5.16     -0.01     -2.5 
 Bq                    5.16     -0.01     -2.3 
 Bq                    5.16     -0.01     -2.1 
 Bq                    5.16     -0.01     -1.9 
 Bq                    5.16     -0.01     -1.7 
 Bq                    5.16     -0.01     -1.5 
 Bq                    5.16     -0.01     -1.3 
 Bq                    5.16     -0.01     -1.1 
 Bq                    5.16     -0.01     -0.9 
 Bq                    5.16     -0.01     -0.7 
 Bq                    5.16     -0.01     -0.5 
 Bq                    5.16     -0.01     -0.3 
 Bq                    5.16     -0.01     -0.1 
 Bq                    5.16     -0.01      0.1 
 Bq                    5.16     -0.01      0.3 
 Bq                    5.16     -0.01      0.5 
 Bq                    5.16     -0.01      0.7 
 Bq                    5.16     -0.01      0.9 
 Bq                    5.16     -0.01      1.1 
 Bq                    5.16     -0.01      1.3 
 Bq                    5.16     -0.01      1.5 
 Bq                    5.16     -0.01      1.7 
 Bq                    5.16     -0.01      1.9 
 Bq                    5.16     -0.01      2.1 
 Bq                    5.16     -0.01      2.3 
 Bq                    5.16     -0.01      2.5 
 Bq                    5.16     -0.01      2.7 
 Bq                    5.16     -0.01      2.9 
 Bq                    5.16     -0.01      3.1 
 Bq                    5.16      0.19     -2.7 
 Bq                    5.16      0.19     -2.5 
 Bq                    5.16      0.19     -2.3 
 Bq                    5.16      0.19     -2.1 
 Bq                    5.16      0.19     -1.9 
 Bq                    5.16      0.19     -1.7 
 Bq                    5.16      0.19     -1.5 
 Bq                    5.16      0.19     -1.3 
 Bq                    5.16      0.19     -1.1 
 Bq                    5.16      0.19     -0.9 
 Bq                    5.16      0.19     -0.7 
 Bq                    5.16      0.19     -0.5 
 Bq                    5.16      0.19     -0.3 
 Bq                    5.16      0.19     -0.1 
 Bq                    5.16      0.19      0.1 
 Bq                    5.16      0.19      0.3 
 Bq                    5.16      0.19      0.5 
 Bq                    5.16      0.19      0.7 
 Bq                    5.16      0.19      0.9 
 Bq                    5.16      0.19      1.1 
 Bq                    5.16      0.19      1.3 
 Bq                    5.16      0.19      1.5 
 Bq                    5.16      0.19      1.7 
 Bq                    5.16      0.19      1.9 
 Bq                    5.16      0.19      2.1 
 Bq                    5.16      0.19      2.3 
 Bq                    5.16      0.19      2.5 
 Bq                    5.16      0.19      2.7 
 Bq                    5.16      0.19      2.9 
 Bq                    5.16      0.19      3.1 
 Bq                    5.16      0.39     -2.7 
 Bq                    5.16      0.39     -2.5 
 Bq                    5.16      0.39     -2.3 
 Bq                    5.16      0.39     -2.1 
[...]
 .9\Bq,0,5.56,-1.61,1.1\Bq,0,5.56,-1.61,1.3\Bq,0,5.56,-1.61,1.5\Bq,0,5.
 56,-1.61,1.7\Bq,0,5.56,-1.61,1.9\Bq,0,5.56,-1.61,2.1\Bq,0,5.56,-1.61,2
 .3\Bq,0,5.56,-1.61,2.5\Bq,0,5.56,-1.61,2.7\Bq,0,5.56,-1.61,2.9\Bq,0,5.
 56,-1.61,3.1\Bq,0,5.56,-1.41,-2.7\Bq,0,5.56,-1.41,-2.5\Bq,0,5.56,-1.41
 ,-2.3\Bq,0,5.56,-1.41,-2.1\Bq,0,5.56,-1.41,-1.9\Bq,0,5.56,-1.41,-1.7\B
 q,0,5.56,-1.41,-1.5\Bq,0,5.56,-1.41,-1.3\Bq,0,5.56,-1.41,-1.1\Bq,0,5.5
 6,-1.41,-0.9\Bq,0,5.56,-1.41,-0.7\Bq,0,5.56,-1.41,-0.5\Bq,0,5.56,-1.41
 ,-0.3\Bq,0,5.56,-1.41,-0.1\Bq,0,5.56,-1.41,0.1\Bq,0,5.56,-1.41,0.3\Bq,
 0,5.56,-1.41,0.5\Bq,0,5.56,-1.41,0.7\Bq,0,5.56,-1.41,0.9\Bq,0,5.56,-1.
 41,1.1\Bq,0,5.56,-1.41,1.3\Bq,0,5.56,-1.41,1.5\Bq,0,5.56,-1.41,1.7\Bq,
 0,5.56,-1.41,1.9\Bq,0,5.56,-1.41,2.1\Bq,0,5.56,-1.41,2.3\Bq,0,5.56,-1.
 41,2.5\Bq,0,5.56,-1.41,2.7\Bq,0,5.56,-1.41,2.9\Bq,0,5.56,-1.41,3.1\Bq,
 0,5.56,-1.21,-2.7\Bq,0,5.56,-1.21,-2.5\Bq,0,5.56,-1.21,-2.3\Bq,0,5.56,
 -1.21,-2.1\Bq,0,5.56,-1.21,-1.9\Bq,0,5.56,-1.21,-1.7\Bq,0,5.56,-1.21,-
 1.5\Bq,0,5.56,-1.21,-1.3\Bq,0,5.56,-1.21,-1.1\Bq,0,5.56,-1.21,-0.9\Bq,
 0,5.56,-1.21,-0.7\Bq,0,5.56,-1.21,-0.5\Bq,0,5.56,-1.21,-0.3\Bq,0,5.56,
 -1.21,-0.1\Bq,0,5.56,-1.21,0.1\Bq,0,5.56,-1.21,0.3\Bq,0,5.56,-1.21,0.5
 \Bq,0,5.56,-1.21,0.7\Bq,0,5.56,-1.21,0.9\Bq,0,5.56,-1.21,1.1\Bq,0,5.56
 ,-1.21,1.3\Bq,0,5.56,-1.21,1.5\Bq,0,5.56,-1.21,1.7\Bq,0,5.56,-1.21,1.9
 \Bq,0,5.56,-1.21,2.1\Bq,0,5.56,-1.21,2.3\Bq,0,5.56,-1.21,2.5\Bq,0,5.56
 ,-1.21,2.7\Bq,0,5.56,-1.21,2.9\Bq,0,5.56,-1.21,3.1\Bq,0,5.56,-1.01,-2.
 7\Bq,0,5.56,-1.01,-2.5\Bq,0,5.56,-1.01,-2.3\Bq,0,5.56,-1.01,-2.1\Bq,0,
 5.56,-1.01,-1.9\Bq,0,5.56,-1.01,-1.7\Bq,0,5.56,-1.01,-1.5\Bq,0,5.56,-1
 .01,-1.3\Bq,0,5.56,-1.01,-1.1\Bq,0,5.56,-1.01,-0.9\Bq,0,5.56,-1.01,-0.
 7\Bq,0,5.56,-1.01,-0.5\Bq,0,5.56,-1.01,-0.3\Bq,0,5.56,-1.01,-0.1\Bq,0,
 5.56,-1.01,0.1\Bq,0,5.56,-1.01,0.3\Bq,0,5.56,-1.01,0.5\Bq,0,5.56,-1.01
 ,0.7\Bq,0,5.56,-1.01,0.9\Bq,0,5.56,-1.01,1.1\Bq,0,5.56,-1.01,1.3\Bq,0,
 5.56,-1.01,1.5\Bq,0,5.56,-1.01,1.7\Bq,0,5.56,-1.01,1.9\Bq,0,5.56,-1.01
 ,2.1\Bq,0,5.56,-1.01,2.3\Bq,0,5.56,-1.01,2.5\Bq,0,5.56,-1.01,2.7\Bq,0,
 5.56,-1.01,2.9\Bq,0,5.56,-1.01,3.1\Bq,0,5.56,-0.81,-2.7\Bq,0,5.56,-0.8
 1,-2.5\Bq,0,5.56,-0.81,-2.3\Bq,0,5.56,-0.81,-2.1\Bq,0,5.56,-0.81,-1.9\
 Bq,0,5.56,-0.81,-1.7\Bq,0,5.56,-0.81,-1.5\Bq,0,5.56,-0.81,-1.3\Bq,0,5.
 56,-0.81,-1.1\Bq,0,5.56,-0.81,-0.9\Bq,0,5.56,-0.81,-0.7\Bq,0,5.56,-0.8
 1,-0.5\Bq,0,5.56,-0.81,-0.3\Bq,0,5.56,-0.81,-0.1\Bq,0,5.56,-0.81,0.1\B
 q,0,5.56,-0.81,0.3\Bq,0,5.56,-0.81,0.5\Bq,0,5.56,-0.81,0.7\Bq,0,5.56,-
 0.81,0.9\Bq,0,5.56,-0.81,1.1\Bq,0,5.56,-0.81,1.3\Bq,0,5.56,-0.81,1.5\B
 q,0,5.56,-0.81,1.7\Bq,0,5.56,-0.81,1.9\Bq,0,5.56,-0.81,2.1\Bq,0,5.56,-
 0.81,2.3\Bq,0,5.56,-0.81,2.5\Bq,0,5.56,-0.81,2.7\Bq,0,5.56,-0.81,2.9\B
 q,0,5.56,-0.81,3.1\Bq,0,5.56,-0.61,-2.7\Bq,0,5.56,-0.61,-2.5\Bq,0,5.56
 ,-0.61,-2.3\Bq,0,5.56,-0.61,-2.1\Bq,0,5.56,-0.61,-1.9\Bq,0,5.56,-0.61,
 -1.7\Bq,0,5.56,-0.61,-1.5\Bq,0,5.56,-0.61,-1.3\Bq,0,5.56,-0.61,-1.1\Bq
 ,0,5.56,-0.61,-0.9\Bq,0,5.56,-0.61,-0.7\Bq,0,5.56,-0.61,-0.5\Bq,0,5.56
 ,-0.61,-0.3\Bq,0,5.56,-0.61,-0.1\Bq,0,5.56,-0.61,0.1\Bq,0,5.56,-0.61,0
 .3\Bq,0,5.56,-0.61,0.5\Bq,0,5.56,-0.61,0.7\Bq,0,5.56,-0.61,0.9\Bq,0,5.
 56,-0.61,1.1\Bq,0,5.56,-0.61,1.3\Bq,0,5.56,-0.61,1.5\Bq,0,5.56,-0.61,1
 .7\Bq,0,5.56,-0.61,1.9\Bq,0,5.56,-0.61,2.1\Bq,0,5.56,-0.61,2.3\Bq,0,5.
 56,-0.61,2.5\Bq,0,5.56,-0.61,2.7\Bq,0,5.56,-0.61,2.9\Bq,0,5.56,-0.61,3
 .1\Bq,0,5.56,-0.41,-2.7\Bq,0,5.56,-0.41,-2.5\Bq,0,5.56,-0.41,-2.3\Bq,0
 ,5.56,-0.41,-2.1\Bq,0,5.56,-0.41,-1.9\Bq,0,5.56,-0.41,-1.7\Bq,0,5.56,-
 0.41,-1.5\Bq,0,5.56,-0.41,-1.3\Bq,0,5.56,-0.41,-1.1\Bq,0,5.56,-0.41,-0
 .9\Bq,0,5.56,-0.41,-0.7\Bq,0,5.56,-0.41,-0.5\Bq,0,5.56,-0.41,-0.3\Bq,0
 ,5.56,-0.41,-0.1\Bq,0,5.56,-0.41,0.1\Bq,0,5.56,-0.41,0.3\Bq,0,5.56,-0.
 41,0.5\Bq,0,5.56,-0.41,0.7\Bq,0,5.56,-0.41,0.9\Bq,0,5.56,-0.41,1.1\Bq,
 0,5.56,-0.41,1.3\Bq,0,5.56,-0.41,1.5\Bq,0,5.56,-0.41,1.7\Bq,0,5.56,-0.
 41,1.9\Bq,0,5.56,-0.41,2.1\Bq,0,5.56,-0.41,2.3\Bq,0,5.56,-0.41,2.5\Bq,
 0,5.56,-0.41,2.7\Bq,0,5.56,-0.41,2.9\Bq,0,5.56,-0.41,3.1\Bq,0,5.56,-0.
 21,-2.7\Bq,0,5.56,-0.21,-2.5\Bq,0,5.56,-0.21,-2.3\Bq,0,5.56,-0.21,-2.1
 \Bq,0,5.56,-0.21,-1.9\Bq,0,5.56,-0.21,-1.7\Bq,0,5.56,-0.21,-1.5\Bq,0,5
 .56,-0.21,-1.3\Bq,0,5.56,-0.21,-1.1\Bq,0,5.56,-0.21,-0.9\Bq,0,5.56,-0.
 21,-0.7\Bq,0,5.56,-0.21,-0.5\Bq,0,5.56,-0.21,-0.3\Bq,0,5.56,-0.21,-0.1
 \Bq,0,5.56,-0.21,0.1\Bq,0,5.56,-0.21,0.3\Bq,0,5.56,-0.21,0.5\Bq,0,5.56
 ,-0.21,0.7\Bq,0,5.56,-0.21,0.9\Bq,0,5.56,-0.21,1.1\Bq,0,5.56,-0.21,1.3
 \Bq,0,5.56,-0.21,1.5\Bq,0,5.56,-0.21,1.7\Bq,0,5.56,-0.21,1.9\Bq,0,5.56
 ,-0.21,2.1\Bq,0,5.56,-0.21,2.3\Bq,0,5.56,-0.21,2.5\Bq,0,5.56,-0.21,2.7
 \Bq,0,5.56,-0.21,2.9\Bq,0,5.56,-0.21,3.1\Bq,0,5.56,-0.01,-2.7\Bq,0,5.5
 6,-0.01,-2.5\Bq,0,5.56,-0.01,-2.3\Bq,0,5.56,-0.01,-2.1\Bq,0,5.56,-0.01
 ,-1.9\Bq,0,5.56,-0.01,-1.7\Bq,0,5.56,-0.01,-1.5\Bq,0,5.56,-0.01,-1.3\B
 q,0,5.56,-0.01,-1.1\Bq,0,5.56,-0.01,-0.9\Bq,0,5.56,-0.01,-0.7\Bq,0,5.5
 6,-0.01,-0.5\Bq,0,5.56,-0.01,-0.3\Bq,0,5.56,-0.01,-0.1\Bq,0,5.56,-0.01
 ,0.1\Bq,0,5.56,-0.01,0.3\Bq,0,5.56,-0.01,0.5\Bq,0,5.56,-0.01,0.7\Bq,0,
 5.56,-0.01,0.9\Bq,0,5.56,-0.01,1.1\Bq,0,5.56,-0.01,1.3\Bq,0,5.56,-0.01
 ,1.5\Bq,0,5.56,-0.01,1.7\Bq,0,5.56,-0.01,1.9\Bq,0,5.56,-0.01,2.1\Bq,0,
 5.56,-0.01,2.3\Bq,0,5.56,-0.01,2.5\Bq,0,5.56,-0.01,2.7\Bq,0,5.56,-0.01
 ,2.9\Bq,0,5.56,-0.01,3.1\Bq,0,5.56,0.19,-2.7\Bq,0,5.56,0.19,-2.5\Bq,0,
 5.56,0.19,-2.3\Bq,0,5.56,0.19,-2.1\Bq,0,5.56,0.19,-1.9\Bq,0,5.56,0.19,
 -1.7\Bq,0,5.56,0.19,-1.5\Bq,0,5.56,0.19,-1.3\Bq,0,5.56,0.19,-1.1\Bq,0,
 5.56,0.19,-0.9\Bq,0,5.56,0.19,-0.7\Bq,0,5.56,0.19,-0.5\Bq,0,5.56,0.19,
 -0.3\Bq,0,5.56,0.19,-0.1\Bq,0,5.56,0.19,0.1\Bq,0,5.56,0.19,0.3\Bq,0,5.
 56,0.19,0.5\Bq,0,5.56,0.19,0.7\Bq,0,5.56,0.19,0.9\Bq,0,5.56,0.19,1.1\B
 q,0,5.56,0.19,1.3\Bq,0,5.56,0.19,1.5\Bq,0,5.56,0.19,1.7\Bq,0,5.56,0.19
 ,1.9\Bq,0,5.56,0.19,2.1\Bq,0,5.56,0.19,2.3\Bq,0,5.56,0.19,2.5\Bq,0,5.5
 6,0.19,2.7\Bq,0,5.56,0.19,2.9\Bq,0,5.56,0.19,3.1\Bq,0,5.56,0.39,-2.7\B
 q,0,5.56,0.39,-2.5\Bq,0,5.56,0.39,-2.3\Bq,0,5.56,0.39,-2.1\Bq,0,5.56,0
 .39,-1.9\Bq,0,5.56,0.39,-1.7\Bq,0,5.56,0.39,-1.5\Bq,0,5.56,0.39,-1.3\B
 q,0,5.56,0.39,-1.1\Bq,0,5.56,0.39,-0.9\Bq,0,5.56,0.39,-0.7\Bq,0,5.56,0
 .39,-0.5\Bq,0,5.56,0.39,-0.3\Bq,0,5.56,0.39,-0.1\Bq,0,5.56,0.39,0.1\Bq
 ,0,5.56,0.39,0.3\Bq,0,5.56,0.39,0.5\Bq,0,5.56,0.39,0.7\Bq,0,5.56,0.39,
 0.9\Bq,0,5.56,0.39,1.1\Bq,0,5.56,0.39,1.3\Bq,0,5.56,0.39,1.5\Bq,0,5.56
 ,0.39,1.7\Bq,0,5.56,0.39,1.9\Bq,0,5.56,0.39,2.1\Bq,0,5.56,0.39,2.3\Bq,
 0,5.56,0.39,2.5\Bq,0,5.56,0.39,2.7\Bq,0,5.56,0.39,2.9\Bq,0,5.56,0.39,3
 .1\Bq,0,5.56,0.59,-2.7\Bq,0,5.56,0.59,-2.5\Bq,0,5.56,0.59,-2.3\Bq,0,5.
 56,0.59,-2.1\Bq,0,5.56,0.59,-1.9\Bq,0,5.56,0.59,-1.7\Bq,0,5.56,0.59,-1
 .5\Bq,0,5.56,0.59,-1.3\Bq,0,5.56,0.59,-1.1\Bq,0,5.56,0.59,-0.9\Bq,0,5.
 56,0.59,-0.7\Bq,0,5.56,0.59,-0.5\Bq,0,5.56,0.59,-0.3\Bq,0,5.56,0.59,-0
 .1\Bq,0,5.56,0.59,0.1\Bq,0,5.56,0.59,0.3\Bq,0,5.56,0.59,0.5\Bq,0,5.56,
 0.59,0.7\Bq,0,5.56,0.59,0.9\Bq,0,5.56,0.59,1.1\Bq,0,5.56,0.59,1.3\Bq,0
 ,5.56,0.59,1.5\Bq,0,5.56,0.59,1.7\Bq,0,5.56,0.59,1.9\Bq,0,5.56,0.59,2.
 1\Bq,0,5.56,0.59,2.3\Bq,0,5.56,0.59,2.5\Bq,0,5.56,0.59,2.7\Bq,0,5.56,0
 .59,2.9\Bq,0,5.56,0.59,3.1\Bq,0,5.56,0.79,-2.7\Bq,0,5.56,0.79,-2.5\Bq,
 0,5.56,0.79,-2.3\Bq,0,5.56,0.79,-2.1\Bq,0,5.56,0.79,-1.9\Bq,0,5.56,0.7
 9,-1.7\Bq,0,5.56,0.79,-1.5\Bq,0,5.56,0.79,-1.3\Bq,0,5.56,0.79,-1.1\Bq,
 0,5.56,0.79,-0.9\Bq,0,5.56,0.79,-0.7\Bq,0,5.56,0.79,-0.5\Bq,0,5.56,0.7
 9,-0.3\Bq,0,5.56,0.79,-0.1\Bq,0,5.56,0.79,0.1\Bq,0,5.56,0.79,0.3\Bq,0,
 5.56,0.79,0.5\Bq,0,5.56,0.79,0.7\Bq,0,5.56,0.79,0.9\Bq,0,5.56,0.79,1.1
 \Bq,0,5.56,0.79,1.3\Bq,0,5.56,0.79,1.5\Bq,0,5.56,0.79,1.7\Bq,0,5.56,0.
 79,1.9\Bq,0,5.56,0.79,2.1\Bq,0,5.56,0.79,2.3\Bq,0,5.56,0.79,2.5\Bq,0,5
 .56,0.79,2.7\Bq,0,5.56,0.79,2.9\Bq,0,5.56,0.79,3.1\Bq,0,5.56,0.99,-2.7
 \Bq,0,5.56,0.99,-2.5\Bq,0,5.56,0.99,-2.3\Bq,0,5.56,0.99,-2.1\Bq,0,5.56
 ,0.99,-1.9\Bq,0,5.56,0.99,-1.7\Bq,0,5.56,0.99,-1.5\Bq,0,5.56,0.99,-1.3
 \Bq,0,5.56,0.99,-1.1\Bq,0,5.56,0.99,-0.9\Bq,0,5.56,0.99,-0.7\Bq,0,5.56
 ,0.99,-0.5\Bq,0,5.56,0.99,-0.3\Bq,0,5.56,0.99,-0.1\Bq,0,5.56,0.99,0.1\
 Bq,0,5.56,0.99,0.3\Bq,0,5.56,0.99,0.5\Bq,0,5.56,0.99,0.7\Bq,0,5.56,0.9
 9,0.9\Bq,0,5.56,0.99,1.1\Bq,0,5.56,0.99,1.3\Bq,0,5.56,0.99,1.5\Bq,0,5.
 56,0.99,1.7\Bq,0,5.56,0.99,1.9\Bq,0,5.56,0.99,2.1\Bq,0,5.56,0.99,2.3\B
 q,0,5.56,0.99,2.5\Bq,0,5.56,0.99,2.7\Bq,0,5.56,0.99,2.9\Bq,0,5.56,0.99
 ,3.1\Bq,0,5.56,1.19,-2.7\Bq,0,5.56,1.19,-2.5\Bq,0,5.56,1.19,-2.3\Bq,0,
 5.56,1.19,-2.1\Bq,0,5.56,1.19,-1.9\Bq,0,5.56,1.19,-1.7\Bq,0,5.56,1.19,
 -1.5\Bq,0,5.56,1.19,-1.3\Bq,0,5.56,1.19,-1.1\Bq,0,5.56,1.19,-0.9\Bq,0,
 5.56,1.19,-0.7\Bq,0,5.56,1.19,-0.5\Bq,0,5.56,1.19,-0.3\Bq,0,5.56,1.19,
 -0.1\Bq,0,5.56,1.19,0.1\Bq,0,5.56,1.19,0.3\Bq,0,5.56,1.19,0.5\Bq,0,5.5
 6,1.19,0.7\Bq,0,5.56,1.19,0.9\Bq,0,5.56,1.19,1.1\Bq,0,5.56,1.19,1.3\Bq
 ,0,5.56,1.19,1.5\Bq,0,5.56,1.19,1.7\Bq,0,5.56,1.19,1.9\Bq,0,5.56,1.19,
 2.1\Bq,0,5.56,1.19,2.3\Bq,0,5.56,1.19,2.5\Bq,0,5.56,1.19,2.7\Bq,0,5.56
 ,1.19,2.9\Bq,0,5.56,1.19,3.1\Bq,0,5.56,1.39,-2.7\Bq,0,5.56,1.39,-2.5\B
 q,0,5.56,1.39,-2.3\Bq,0,5.56,1.39,-2.1\Bq,0,5.56,1.39,-1.9\Bq,0,5.56,1
 .39,-1.7\Bq,0,5.56,1.39,-1.5\Bq,0,5.56,1.39,-1.3\Bq,0,5.56,1.39,-1.1\B
 q,0,5.56,1.39,-0.9\Bq,0,5.56,1.39,-0.7\Bq,0,5.56,1.39,-0.5\Bq,0,5.56,1
 .39,-0.3\Bq,0,5.56,1.39,-0.1\Bq,0,5.56,1.39,0.1\Bq,0,5.56,1.39,0.3\Bq,
 0,5.56,1.39,0.5\Bq,0,5.56,1.39,0.7\Bq,0,5.56,1.39,0.9\Bq,0,5.56,1.39,1
 .1\Bq,0,5.56,1.39,1.3\Bq,0,5.56,1.39,1.5\Bq,0,5.56,1.39,1.7\Bq,0,5.56,
 1.39,1.9\Bq,0,5.56,1.39,2.1\Bq,0,5.56,1.39,2.3\Bq,0,5.56,1.39,2.5\Bq,0
 ,5.56,1.39,2.7\Bq,0,5.56,1.39,2.9\Bq,0,5.56,1.39,3.1\Bq,0,5.56,1.59,-2
 .7\Bq,0,5.56,1.59,-2.5\Bq,0,5.56,1.59,-2.3\Bq,0,5.56,1.59,-2.1\Bq,0,5.
 56,1.59,-1.9\Bq,0,5.56,1.59,-1.7\Bq,0,5.56,1.59,-1.5\Bq,0,5.56,1.59,-1
 .3\Bq,0,5.56,1.59,-1.1\Bq,0,5.56,1.59,-0.9\Bq,0,5.56,1.59,-0.7\Bq,0,5.
 56,1.59,-0.5\Bq,0,5.56,1.59,-0.3\Bq,0,5.56,1.59,-0.1\Bq,0,5.56,1.59,0.
 1\Bq,0,5.56,1.59,0.3\Bq,0,5.56,1.59,0.5\Bq,0,5.56,1.59,0.7\Bq,0,5.56,1
 .59,0.9\Bq,0,5.56,1.59,1.1\Bq,0,5.56,1.59,1.3\Bq,0,5.56,1.59,1.5\Bq,0,
 5.56,1.59,1.7\Bq,0,5.56,1.59,1.9\Bq,0,5.56,1.59,2.1\Bq,0,5.56,1.59,2.3
 \Bq,0,5.56,1.59,2.5\Bq,0,5.56,1.59,2.7\Bq,0,5.56,1.59,2.9\Bq,0,5.56,1.
 59,3.1\Bq,0,5.56,1.79,-2.7\Bq,0,5.56,1.79,-2.5\Bq,0,5.56,1.79,-2.3\Bq,
 0,5.56,1.79,-2.1\Bq,0,5.56,1.79,-1.9\Bq,0,5.56,1.79,-1.7\Bq,0,5.56,1.7
 9,-1.5\Bq,0,5.56,1.79,-1.3\Bq,0,5.56,1.79,-1.1\Bq,0,5.56,1.79,-0.9\Bq,
 0,5.56,1.79,-0.7\Bq,0,5.56,1.79,-0.5\Bq,0,5.56,1.79,-0.3\Bq,0,5.56,1.7
 9,-0.1\Bq,0,5.56,1.79,0.1\Bq,0,5.56,1.79,0.3\Bq,0,5.56,1.79,0.5\Bq,0,5
 .56,1.79,0.7\Bq,0,5.56,1.79,0.9\Bq,0,5.56,1.79,1.1\Bq,0,5.56,1.79,1.3\
 Bq,0,5.56,1.79,1.5\Bq,0,5.56,1.79,1.7\Bq,0,5.56,1.79,1.9\Bq,0,5.56,1.7
 9,2.1\Bq,0,5.56,1.79,2.3\Bq,0,5.56,1.79,2.5\Bq,0,5.56,1.79,2.7\Bq,0,5.
 56,1.79,2.9\Bq,0,5.56,1.79,3.1\Bq,0,5.56,1.99,-2.7\Bq,0,5.56,1.99,-2.5
 \Bq,0,5.56,1.99,-2.3\Bq,0,5.56,1.99,-2.1\Bq,0,5.56,1.99,-1.9\Bq,0,5.56
 ,1.99,-1.7\Bq,0,5.56,1.99,-1.5\Bq,0,5.56,1.99,-1.3\Bq,0,5.56,1.99,-1.1
 \Bq,0,5.56,1.99,-0.9\Bq,0,5.56,1.99,-0.7\Bq,0,5.56,1.99,-0.5\Bq,0,5.56
 ,1.99,-0.3\Bq,0,5.56,1.99,-0.1\Bq,0,5.56,1.99,0.1\Bq,0,5.56,1.99,0.3\B
 q,0,5.56,1.99,0.5\Bq,0,5.56,1.99,0.7\Bq,0,5.56,1.99,0.9\Bq,0,5.56,1.99
 ,1.1\Bq,0,5.56,1.99,1.3\Bq,0,5.56,1.99,1.5\Bq,0,5.56,1.99,1.7\Bq,0,5.5
 6,1.99,1.9\Bq,0,5.56,1.99,2.1\Bq,0,5.56,1.99,2.3\Bq,0,5.56,1.99,2.5\Bq
 ,0,5.56,1.99,2.7\Bq,0,5.56,1.99,2.9\Bq,0,5.56,1.99,3.1\Bq,0,5.56,2.19,
 -2.7\Bq,0,5.56,2.19,-2.5\Bq,0,5.56,2.19,-2.3\Bq,0,5.56,2.19,-2.1\Bq,0,
 5.56,2.19,-1.9\Bq,0,5.56,2.19,-1.7\Bq,0,5.56,2.19,-1.5\Bq,0,5.56,2.19,
 -1.3\Bq,0,5.56,2.19,-1.1\Bq,0,5.56,2.19,-0.9\Bq,0,5.56,2.19,-0.7\Bq,0,
 5.56,2.19,-0.5\Bq,0,5.56,2.19,-0.3\Bq,0,5.56,2.19,-0.1\Bq,0,5.56,2.19,
 0.1\Bq,0,5.56,2.19,0.3\Bq,0,5.56,2.19,0.5\Bq,0,5.56,2.19,0.7\Bq,0,5.56
 ,2.19,0.9\Bq,0,5.56,2.19,1.1\Bq,0,5.56,2.19,1.3\Bq,0,5.56,2.19,1.5\Bq,
 0,5.56,2.19,1.7\Bq,0,5.56,2.19,1.9\Bq,0,5.56,2.19,2.1\Bq,0,5.56,2.19,2
 .3\Bq,0,5.56,2.19,2.5\Bq,0,5.56,2.19,2.7\Bq,0,5.56,2.19,2.9\Bq,0,5.56,
 2.19,3.1\Bq,0,5.56,2.39,-2.7\Bq,0,5.56,2.39,-2.5\Bq,0,5.56,2.39,-2.3\B
 q,0,5.56,2.39,-2.1\Bq,0,5.56,2.39,-1.9\Bq,0,5.56,2.39,-1.7\Bq,0,5.56,2
 .39,-1.5\Bq,0,5.56,2.39,-1.3\Bq,0,5.56,2.39,-1.1\Bq,0,5.56,2.39,-0.9\B
 q,0,5.56,2.39,-0.7\Bq,0,5.56,2.39,-0.5\Bq,0,5.56,2.39,-0.3\Bq,0,5.56,2
 .39,-0.1\Bq,0,5.56,2.39,0.1\Bq,0,5.56,2.39,0.3\Bq,0,5.56,2.39,0.5\Bq,0
 ,5.56,2.39,0.7\Bq,0,5.56,2.39,0.9\Bq,0,5.56,2.39,1.1\Bq,0,5.56,2.39,1.
 3\Bq,0,5.56,2.39,1.5\Bq,0,5.56,2.39,1.7\Bq,0,5.56,2.39,1.9\Bq,0,5.56,2
 .39,2.1\Bq,0,5.56,2.39,2.3\Bq,0,5.56,2.39,2.5\Bq,0,5.56,2.39,2.7\Bq,0,
 5.56,2.39,2.9\Bq,0,5.56,2.39,3.1\Bq,0,5.56,2.59,-2.7\Bq,0,5.56,2.59,-2
 .5\Bq,0,5.56,2.59,-2.3\Bq,0,5.56,2.59,-2.1\Bq,0,5.56,2.59,-1.9\Bq,0,5.
 56,2.59,-1.7\Bq,0,5.56,2.59,-1.5\Bq,0,5.56,2.59,-1.3\Bq,0,5.56,2.59,-1
 .1\Bq,0,5.56,2.59,-0.9\Bq,0,5.56,2.59,-0.7\Bq,0,5.56,2.59,-0.5\Bq,0,5.
 56,2.59,-0.3\Bq,0,5.56,2.59,-0.1\Bq,0,5.56,2.59,0.1\Bq,0,5.56,2.59,0.3
 \Bq,0,5.56,2.59,0.5\Bq,0,5.56,2.59,0.7\Bq,0,5.56,2.59,0.9\Bq,0,5.56,2.
 59,1.1\Bq,0,5.56,2.59,1.3\Bq,0,5.56,2.59,1.5\Bq,0,5.56,2.59,1.7\Bq,0,5
 .56,2.59,1.9\Bq,0,5.56,2.59,2.1\Bq,0,5.56,2.59,2.3\Bq,0,5.56,2.59,2.5\
 Bq,0,5.56,2.59,2.7\Bq,0,5.56,2.59,2.9\Bq,0,5.56,2.59,3.1\Bq,0,5.56,2.7
 9,-2.7\Bq,0,5.56,2.79,-2.5\Bq,0,5.56,2.79,-2.3\Bq,0,5.56,2.79,-2.1\Bq,
 0,5.56,2.79,-1.9\Bq,0,5.56,2.79,-1.7\Bq,0,5.56,2.79,-1.5\Bq,0,5.56,2.7
 9,-1.3\Bq,0,5.56,2.79,-1.1\Bq,0,5.56,2.79,-0.9\Bq,0,5.56,2.79,-0.7\Bq,
 0,5.56,2.79,-0.5\Bq,0,5.56,2.79,-0.3\Bq,0,5.56,2.79,-0.1\Bq,0,5.56,2.7
 9,0.1\Bq,0,5.56,2.79,0.3\Bq,0,5.56,2.79,0.5\Bq,0,5.56,2.79,0.7\Bq,0,5.
 56,2.79,0.9\Bq,0,5.56,2.79,1.1\Bq,0,5.56,2.79,1.3\Bq,0,5.56,2.79,1.5\B
 q,0,5.56,2.79,1.7\Bq,0,5.56,2.79,1.9\Bq,0,5.56,2.79,2.1\Bq,0,5.56,2.79
 ,2.3\Bq,0,5.56,2.79,2.5\Bq,0,5.56,2.79,2.7\Bq,0,5.56,2.79,2.9\Bq,0,5.5
 6,2.79,3.1\Bq,0,5.56,2.99,-2.7\Bq,0,5.56,2.99,-2.5\Bq,0,5.56,2.99,-2.3
 \Bq,0,5.56,2.99,-2.1\Bq,0,5.56,2.99,-1.9\Bq,0,5.56,2.99,-1.7\Bq,0,5.56
 ,2.99,-1.5\Bq,0,5.56,2.99,-1.3\Bq,0,5.56,2.99,-1.1\Bq,0,5.56,2.99,-0.9
 \Bq,0,5.56,2.99,-0.7\Bq,0,5.56,2.99,-0.5\Bq,0,5.56,2.99,-0.3\Bq,0,5.56
 ,2.99,-0.1\Bq,0,5.56,2.99,0.1\Bq,0,5.56,2.99,0.3\Bq,0,5.56,2.99,0.5\Bq
 ,0,5.56,2.99,0.7\Bq,0,5.56,2.99,0.9\Bq,0,5.56,2.99,1.1\Bq,0,5.56,2.99,
 1.3\Bq,0,5.56,2.99,1.5\Bq,0,5.56,2.99,1.7\Bq,0,5.56,2.99,1.9\Bq,0,5.56
 ,2.99,2.1\Bq,0,5.56,2.99,2.3\Bq,0,5.56,2.99,2.5\Bq,0,5.56,2.99,2.7\Bq,
 0,5.56,2.99,2.9\Bq,0,5.56,2.99,3.1\Bq,0,5.56,3.19,-2.7\Bq,0,5.56,3.19,
 -2.5\Bq,0,5.56,3.19,-2.3\Bq,0,5.56,3.19,-2.1\Bq,0,5.56,3.19,-1.9\Bq,0,
 5.56,3.19,-1.7\Bq,0,5.56,3.19,-1.5\Bq,0,5.56,3.19,-1.3\Bq,0,5.56,3.19,
 -1.1\Bq,0,5.56,3.19,-0.9\Bq,0,5.56,3.19,-0.7\Bq,0,5.56,3.19,-0.5\Bq,0,
 5.56,3.19,-0.3\Bq,0,5.56,3.19,-0.1\Bq,0,5.56,3.19,0.1\Bq,0,5.56,3.19,0
 .3\Bq,0,5.56,3.19,0.5\Bq,0,5.56,3.19,0.7\Bq,0,5.56,3.19,0.9\Bq,0,5.56,
 3.19,1.1\Bq,0,5.56,3.19,1.3\Bq,0,5.56,3.19,1.5\Bq,0,5.56,3.19,1.7\Bq,0
 ,5.56,3.19,1.9\Bq,0,5.56,3.19,2.1\Bq,0,5.56,3.19,2.3\Bq,0,5.56,3.19,2.
 5\Bq,0,5.56,3.19,2.7\Bq,0,5.56,3.19,2.9\Bq,0,5.56,3.19,3.1\Bq,0,5.56,3
 .39,-2.7\Bq,0,5.56,3.39,-2.5\Bq,0,5.56,3.39,-2.3\Bq,0,5.56,3.39,-2.1\B
 q,0,5.56,3.39,-1.9\Bq,0,5.56,3.39,-1.7\Bq,0,5.56,3.39,-1.5\Bq,0,5.56,3
 .39,-1.3\Bq,0,5.56,3.39,-1.1\Bq,0,5.56,3.39,-0.9\Bq,0,5.56,3.39,-0.7\B
 q,0,5.56,3.39,-0.5\Bq,0,5.56,3.39,-0.3\Bq,0,5.56,3.39,-0.1\Bq,0,5.56,3
 .39,0.1\Bq,0,5.56,3.39,0.3\Bq,0,5.56,3.39,0.5\Bq,0,5.56,3.39,0.7\Bq,0,
 5.56,3.39,0.9\Bq,0,5.56,3.39,1.1\Bq,0,5.56,3.39,1.3\Bq,0,5.56,3.39,1.5
 \Bq,0,5.56,3.39,1.7\Bq,0,5.56,3.39,1.9\Bq,0,5.56,3.39,2.1\Bq,0,5.56,3.
 39,2.3\Bq,0,5.56,3.39,2.5\Bq,0,5.56,3.39,2.7\Bq,0,5.56,3.39,2.9\Bq,0,5
 .56,3.39,3.1\Bq,0,5.56,3.59,-2.7\Bq,0,5.56,3.59,-2.5\Bq,0,5.56,3.59,-2
 .3\Bq,0,5.56,3.59,-2.1\Bq,0,5.56,3.59,-1.9\Bq,0,5.56,3.59,-1.7\Bq,0,5.
 56,3.59,-1.5\Bq,0,5.56,3.59,-1.3\Bq,0,5.56,3.59,-1.1\Bq,0,5.56,3.59,-0
 .9\Bq,0,5.56,3.59,-0.7\Bq,0,5.56,3.59,-0.5\Bq,0,5.56,3.59,-0.3\Bq,0,5.
 56,3.59,-0.1\Bq,0,5.56,3.59,0.1\Bq,0,5.56,3.59,0.3\Bq,0,5.56,3.59,0.5\
 Bq,0,5.56,3.59,0.7\Bq,0,5.56,3.59,0.9\Bq,0,5.56,3.59,1.1\Bq,0,5.56,3.5
 9,1.3\Bq,0,5.56,3.59,1.5\Bq,0,5.56,3.59,1.7\Bq,0,5.56,3.59,1.9\Bq,0,5.
 56,3.59,2.1\Bq,0,5.56,3.59,2.3\Bq,0,5.56,3.59,2.5\Bq,0,5.56,3.59,2.7\B
 q,0,5.56,3.59,2.9\Bq,0,5.56,3.59,3.1\Bq,0,5.56,3.79,-2.7\Bq,0,5.56,3.7
 9,-2.5\Bq,0,5.56,3.79,-2.3\Bq,0,5.56,3.79,-2.1\Bq,0,5.56,3.79,-1.9\Bq,
 0,5.56,3.79,-1.7\Bq,0,5.56,3.79,-1.5\Bq,0,5.56,3.79,-1.3\Bq,0,5.56,3.7
 9,-1.1\Bq,0,5.56,3.79,-0.9\Bq,0,5.56,3.79,-0.7\Bq,0,5.56,3.79,-0.5\Bq,
 0,5.56,3.79,-0.3\Bq,0,5.56,3.79,-0.1\Bq,0,5.56,3.79,0.1\Bq,0,5.56,3.79
 ,0.3\Bq,0,5.56,3.79,0.5\Bq,0,5.56,3.79,0.7\Bq,0,5.56,3.79,0.9\Bq,0,5.5
 6,3.79,1.1\Bq,0,5.56,3.79,1.3\Bq,0,5.56,3.79,1.5\Bq,0,5.56,3.79,1.7\Bq
 ,0,5.56,3.79,1.9\Bq,0,5.56,3.79,2.1\Bq,0,5.56,3.79,2.3\Bq,0,5.56,3.79,
 2.5\Bq,0,5.56,3.79,2.7\Bq,0,5.56,3.79,2.9\Bq,0,5.56,3.79,3.1\Bq,0,5.56
 ,3.99,-2.7\Bq,0,5.56,3.99,-2.5\Bq,0,5.56,3.99,-2.3\Bq,0,5.56,3.99,-2.1
 \Bq,0,5.56,3.99,-1.9\Bq,0,5.56,3.99,-1.7\Bq,0,5.56,3.99,-1.5\Bq,0,5.56
 ,3.99,-1.3\Bq,0,5.56,3.99,-1.1\Bq,0,5.56,3.99,-0.9\Bq,0,5.56,3.99,-0.7
 \Bq,0,5.56,3.99,-0.5\Bq,0,5.56,3.99,-0.3\Bq,0,5.56,3.99,-0.1\Bq,0,5.56
 ,3.99,0.1\Bq,0,5.56,3.99,0.3\Bq,0,5.56,3.99,0.5\Bq,0,5.56,3.99,0.7\Bq,
 0,5.56,3.99,0.9\Bq,0,5.56,3.99,1.1\Bq,0,5.56,3.99,1.3\Bq,0,5.56,3.99,1
 .5\Bq,0,5.56,3.99,1.7\Bq,0,5.56,3.99,1.9\Bq,0,5.56,3.99,2.1\Bq,0,5.56,
 3.99,2.3\Bq,0,5.56,3.99,2.5\Bq,0,5.56,3.99,2.7\Bq,0,5.56,3.99,2.9\Bq,0
 ,5.56,3.99,3.1\Bq,0,5.56,4.19,-2.7\Bq,0,5.56,4.19,-2.5\Bq,0,5.56,4.19,
 -2.3\Bq,0,5.56,4.19,-2.1\Bq,0,5.56,4.19,-1.9\Bq,0,5.56,4.19,-1.7\Bq,0,
 5.56,4.19,-1.5\Bq,0,5.56,4.19,-1.3\Bq,0,5.56,4.19,-1.1\Bq,0,5.56,4.19,
 -0.9\Bq,0,5.56,4.19,-0.7\Bq,0,5.56,4.19,-0.5\Bq,0,5.56,4.19,-0.3\Bq,0,
 5.56,4.19,-0.1\Bq,0,5.56,4.19,0.1\Bq,0,5.56,4.19,0.3\Bq,0,5.56,4.19,0.
 5\Bq,0,5.56,4.19,0.7\Bq,0,5.56,4.19,0.9\Bq,0,5.56,4.19,1.1\Bq,0,5.56,4
 .19,1.3\Bq,0,5.56,4.19,1.5\Bq,0,5.56,4.19,1.7\Bq,0,5.56,4.19,1.9\Bq,0,
 5.56,4.19,2.1\Bq,0,5.56,4.19,2.3\Bq,0,5.56,4.19,2.5\Bq,0,5.56,4.19,2.7
 \Bq,0,5.56,4.19,2.9\Bq,0,5.56,4.19,3.1\Bq,0,5.56,4.39,-2.7\Bq,0,5.56,4
 .39,-2.5\Bq,0,5.56,4.39,-2.3\Bq,0,5.56,4.39,-2.1\Bq,0,5.56,4.39,-1.9\B
 q,0,5.56,4.39,-1.7\Bq,0,5.56,4.39,-1.5\Bq,0,5.56,4.39,-1.3\Bq,0,5.56,4
 .39,-1.1\Bq,0,5.56,4.39,-0.9\Bq,0,5.56,4.39,-0.7\Bq,0,5.56,4.39,-0.5\B
 q,0,5.56,4.39,-0.3\Bq,0,5.56,4.39,-0.1\Bq,0,5.56,4.39,0.1\Bq,0,5.56,4.
 39,0.3\Bq,0,5.56,4.39,0.5\Bq,0,5.56,4.39,0.7\Bq,0,5.56,4.39,0.9\Bq,0,5
 .56,4.39,1.1\Bq,0,5.56,4.39,1.3\Bq,0,5.56,4.39,1.5\Bq,0,5.56,4.39,1.7\
 Bq,0,5.56,4.39,1.9\Bq,0,5.56,4.39,2.1\Bq,0,5.56,4.39,2.3\Bq,0,5.56,4.3
 9,2.5\Bq,0,5.56,4.39,2.7\Bq,0,5.56,4.39,2.9\Bq,0,5.56,4.39,3.1\Bq,0,5.
 56,4.59,-2.7\Bq,0,5.56,4.59,-2.5\Bq,0,5.56,4.59,-2.3\Bq,0,5.56,4.59,-2
 .1\Bq,0,5.56,4.59,-1.9\Bq,0,5.56,4.59,-1.7\Bq,0,5.56,4.59,-1.5\Bq,0,5.
 56,4.59,-1.3\Bq,0,5.56,4.59,-1.1\Bq,0,5.56,4.59,-0.9\Bq,0,5.56,4.59,-0
 .7\Bq,0,5.56,4.59,-0.5\Bq,0,5.56,4.59,-0.3\Bq,0,5.56,4.59,-0.1\Bq,0,5.
 56,4.59,0.1\Bq,0,5.56,4.59,0.3\Bq,0,5.56,4.59,0.5\Bq,0,5.56,4.59,0.7\B
 q,0,5.56,4.59,0.9\Bq,0,5.56,4.59,1.1\Bq,0,5.56,4.59,1.3\Bq,0,5.56,4.59
 ,1.5\Bq,0,5.56,4.59,1.7\Bq,0,5.56,4.59,1.9\Bq,0,5.56,4.59,2.1\Bq,0,5.5
 6,4.59,2.3\Bq,0,5.56,4.59,2.5\Bq,0,5.56,4.59,2.7\Bq,0,5.56,4.59,2.9\Bq
 ,0,5.56,4.59,3.1\\Version=ES64L-G16RevB.01\HF=-563.6578333\S2=2.006955
 \S2-1=0.\S2A=2.000029\RMSD=8.682e-10\Dipole=-0.4834485,-0.5603282,-0.0
 322627\Quadrupole=5.3905819,-0.9129816,-4.4776003,0.594265,1.0439483,0
 .4737973\PG=C01 [X(C12H11F1)]\\@


 ON INDUCTION, OR "WHY DO YOU BELIEVE THE SUN WILL RISE TOMORROW?":

 ... THE FARMER WHO HAS FED THE CHICKEN EVERY DAY THROUGHOUT ITS
 LIFE AT LAST WRINGS ITS NECK INSTEAD, SHOWING THAT MORE REFINED VIEWS
 AS TO THE UNIFORMITY OF NATURE WOULD HAVE BEEN USEFUL TO THE CHICKEN.

                               -- BERTRAND RUSSELL
 Job cpu time:       0 days  0 hours  7 minutes 30.8 seconds.
 Elapsed time:       0 days  0 hours  1 minutes 36.1 seconds.
 File lengths (MBytes):  RWF=    297 Int=      0 D2E=      0 Chk=     25 Scr=      1
 Normal termination of Gaussian 16 at Wed Mar 15 12:06:20 2023.
