 Entering Gaussian System, Link 0=g16
 Initial command:
 /home/wangzhe/g16/l1.exe "/home/wangzhe/g16/Scratch/Gau-265556.inp" -scrdir="/home/wangzhe/g16/Scratch/"
 Default is to use a total of  16 processors:
                               16 via shared-memory
                                1 via Linda
 Entering Link 1 = /home/wangzhe/g16/l1.exe PID=    265562.
  
 Copyright (c) 1988-2017, Gaussian, Inc.  All Rights Reserved.
  
 This is part of the Gaussian(R) 16 program.  It is based on
 the Gaussian(R) 09 system (copyright 2009, Gaussian, Inc.),
 the Gaussian(R) 03 system (copyright 2003, Gaussian, Inc.),
 the Gaussian(R) 98 system (copyright 1998, Gaussian, Inc.),
 the Gaussian(R) 94 system (copyright 1995, Gaussian, Inc.),
 the Gaussian 92(TM) system (copyright 1992, Gaussian, Inc.),
 the Gaussian 90(TM) system (copyright 1990, Gaussian, Inc.),
 the Gaussian 88(TM) system (copyright 1988, Gaussian, Inc.),
 the Gaussian 86(TM) system (copyright 1986, Carnegie Mellon
 University), and the Gaussian 82(TM) system (copyright 1983,
 Carnegie Mellon University). Gaussian is a federally registered
 trademark of Gaussian, Inc.
  
 This software contains proprietary and confidential information,
 including trade secrets, belonging to Gaussian, Inc.
  
 This software is provided under written license and may be
 used, copied, transmitted, or stored only in accord with that
 written license.
  
 The following legend is applicable only to US Government
 contracts under FAR:
  
                    RESTRICTED RIGHTS LEGEND
  
 Use, reproduction and disclosure by the US Government is
 subject to restrictions as set forth in subparagraphs (a)
 and (c) of the Commercial Computer Software - Restricted
 Rights clause in FAR 52.227-19.
  
 Gaussian, Inc.
 340 Quinnipiac St., Bldg. 40, Wallingford CT 06492
  
  
 ---------------------------------------------------------------
 Warning -- This program may not be used in any manner that
 competes with the business of Gaussian, Inc. or will provide
 assistance to any competitor of Gaussian, Inc.  The licensee
 of this program is prohibited from giving any competitor of
 Gaussian, Inc. access to this program.  By using this program,
 the user acknowledges that Gaussian, Inc. is engaged in the
 business of creating and licensing software in the field of
 computational chemistry and represents and warrants to the
 licensee that it is not a competitor of Gaussian, Inc. and that
 it will not use this program in any manner prohibited above.
 ---------------------------------------------------------------
  

 Cite this work as:
 Gaussian 16, Revision B.01,
 M. J. Frisch, G. W. Trucks, H. B. Schlegel, G. E. Scuseria, 
 M. A. Robb, J. R. Cheeseman, G. Scalmani, V. Barone, 
 G. A. Petersson, H. Nakatsuji, X. Li, M. Caricato, A. V. Marenich, 
 J. Bloino, B. G. Janesko, R. Gomperts, B. Mennucci, H. P. Hratchian, 
 J. V. Ortiz, A. F. Izmaylov, J. L. Sonnenberg, D. Williams-Young, 
 F. Ding, F. Lipparini, F. Egidi, J. Goings, B. Peng, A. Petrone, 
 T. Henderson, D. Ranasinghe, V. G. Zakrzewski, J. Gao, N. Rega, 
 G. Zheng, W. Liang, M. Hada, M. Ehara, K. Toyota, R. Fukuda, 
 J. Hasegawa, M. Ishida, T. Nakajima, Y. Honda, O. Kitao, H. Nakai, 
 T. Vreven, K. Throssell, J. A. Montgomery, Jr., J. E. Peralta, 
 F. Ogliaro, M. J. Bearpark, J. J. Heyd, E. N. Brothers, K. N. Kudin, 
 V. N. Staroverov, T. A. Keith, R. Kobayashi, J. Normand, 
 K. Raghavachari, A. P. Rendell, J. C. Burant, S. S. Iyengar, 
 J. Tomasi, M. Cossi, J. M. Millam, M. Klene, C. Adamo, R. Cammi, 
 J. W. Ochterski, R. L. Martin, K. Morokuma, O. Farkas, 
 J. B. Foresman, and D. J. Fox, Gaussian, Inc., Wallingford CT, 2016.
 
 ******************************************
 Gaussian 16:  ES64L-G16RevB.01 20-Dec-2017
                21-Mar-2023 
 ******************************************
 %nprocshared=8
 Will use up to    8 processors via shared memory.
 %mem=10gb
 %chk=WJS006_3D_NICS.chk
 -------------------------------------------------------
 #p nmr=giao b3lyp/6-31g(d) geom=connectivity guess=read
 -------------------------------------------------------
 1/38=1,57=2,172=1/1;
 2/12=2,17=6,18=5,40=1/2;
 3/5=1,6=6,7=1,11=2,25=1,30=1,74=-5,116=-2/1,2,3,8;
 4/5=1/1;
 5/5=2,38=6/2;
 8/6=1,10=90,11=11/1;
 10/13=100,45=16/2;
 6/7=2,8=2,9=2,10=2,28=1/1;
 99/9=1/99;
 Leave Link    1 at Tue Mar 21 02:08:06 2023, MaxMem=  1342177280 cpu:               0.5 elap:               0.0
 (Enter /home/wangzhe/g16/l101.exe)
 --------------------------
 File Created by py.Aroma 3
 --------------------------
 Symbolic Z-matrix:
 Charge =  0 Multiplicity = 1
 S                     11.7897   3.6936    17.9195 
 S                     13.4507   2.31      15.673 
 S                     13.9405   3.2688    12.6987 
 S                     11.8614   3.9732    10.4796 
 S                     9.2669    7.8016    10.5988 
 S                     8.888     9.9537    12.8338 
 C                     13.0319   1.2189    18.1815 
 C                     11.9429   2.0671    18.4861 
 C                     10.8332   1.7174    19.2762 
 H                     10.7412   0.8742    19.7046 
 C                     9.8879    2.7122    19.3714 
 H                     9.0632    2.6159    19.8318 
 C                     10.2802   3.8975    18.705 
 C                     13.8862   1.4032    17.0925 
 C                     15.1255   0.7749    16.8888 
 H                     15.554    0.2385    17.5452 
 C                     15.6653   1.0178    15.6323 
 H                     16.5024   0.6687    15.3486 
 C                     14.8634   1.8221    14.8289 
 C                     15.0785   2.2493    13.4809 
 C                     16.1492   1.9687    12.6414 
 H                     16.8658   1.3888    12.8776 
 C                     16.0636   2.6179    11.4305 
 H                     16.7364   2.5515    10.7613 
 C                     14.9152   3.3782    11.2668 
 C                     14.6027   4.2913    10.2102 
 C                     13.3229   4.7499    9.9208 
 C                     13.0022   5.9374    9.2164 
 H                     13.6585   6.4888    8.8059 
 C                     11.6677   6.2139    9.1821 
 H                     11.3053   6.9967    8.7859 
 C                     10.8724   5.2086    9.8009 
 C                     9.4447    5.1625    9.8466 
 C                     8.6908    6.373     9.8332 
 C                     7.4334    6.593     9.2221 
 H                     6.9229    5.9107    8.801 
 C                     7.0337    7.9082    9.3059 
 H                     6.2399    8.2324    8.895 
 C                     7.8853    8.7208    10.0465 
 C                     7.6963    10.08     10.3473 
 C                     8.3273    10.7586   11.3982 
 C                     8.4429    12.1387   11.5733 
 H                     8.1625    12.7644   10.9156 
 C                     8.9934    12.5136   12.7727 
 H                     9.1708    13.4185   13.0041 
 C                     9.2639    11.4392   13.618 
 S                     7.2501    3.6936    10.6378 
 S                     5.5891    2.31      12.8843 
 S                     5.0994    3.2688    15.8586 
 S                     7.1784    3.9732    18.0777 
 S                     9.7729    7.8016    17.9585 
 S                     10.1519   9.9537    15.7235 
 C                     6.008     1.2189    10.3758 
 C                     7.097     2.0671    10.0712 
 C                     8.2067    1.7174    9.2811 
 H                     8.2987    0.8742    8.8527 
 C                     9.152     2.7122    9.1859 
 H                     9.9767    2.6159    8.7255 
 C                     8.7597    3.8975    9.8523 
 C                     5.1537    1.4032    11.4648 
 C                     3.9144    0.7749    11.6685 
 H                     3.4859    0.2385    11.0121 
 C                     3.3745    1.0178    12.925 
 H                     2.5374    0.6687    13.2087 
 C                     4.1764    1.8221    13.7284 
 C                     3.9613    2.2493    15.0764 
 C                     2.8907    1.9687    15.9159 
 H                     2.1741    1.3888    15.6797 
 C                     2.9762    2.6179    17.1268 
 H                     2.3035    2.5515    17.796 
 C                     4.1247    3.3782    17.2905 
 C                     4.4371    4.2913    18.3471 
 C                     5.717     4.7499    18.6365 
 C                     6.0377    5.9374    19.3409 
 H                     5.3814    6.4888    19.7514 
 C                     7.3721    6.2139    19.3752 
 H                     7.7346    6.9967    19.7714 
 C                     8.1675    5.2086    18.7564 
 C                     9.5952    5.1625    18.7107 
 C                     10.349    6.373     18.7241 
 C                     11.6065   6.593     19.3352 
 H                     12.117    5.9107    19.7563 
 C                     12.0062   7.9082    19.2514 
 H                     12.8      8.2324    19.6623 
 C                     11.1546   8.7208    18.5108 
 C                     11.3436   10.08     18.21 
 C                     10.7126   10.7586   17.1591 
 C                     10.597    12.1387   16.984 
 H                     10.8774   12.7644   17.6417 
 C                     10.0465   12.5136   15.7846 
 H                     9.8691    13.4185   15.5532 
 C                     9.776     11.4392   14.9393 
 H                     12.0174   10.6366   18.8274 
 H                     15.4087   4.6449    9.6018 
 H                     7.0225    10.6366   9.7299 
 H                     5.8271    0.3837    9.7319 
 H                     13.2128   0.3837    18.8254 
 H                     3.631     4.6449    18.9555 
 Bq                    18.27     13.74     16.83 
 Bq                    18.27     13.74     17.03 
 Bq                    18.27     13.74     17.23 
 Bq                    18.27     13.74     17.43 
 Bq                    18.27     13.74     17.63 
 Bq                    18.27     13.74     17.83 
 Bq                    18.27     13.74     18.03 
 Bq                    18.27     13.74     18.23 
 Bq                    18.27     13.74     18.43 
 Bq                    18.27     13.74     18.63 
 Bq                    18.27     13.74     18.83 
 Bq                    18.27     13.74     19.03 
 Bq                    18.27     13.74     19.23 
 Bq                    18.27     13.74     19.43 
 Bq                    18.27     13.74     19.63 
 Bq                    18.27     13.74     19.83 
 Bq                    18.27     13.74     20.03 
 Bq                    18.27     13.74     20.23 
 Bq                    18.27     13.74     20.43 
 Bq                    18.27     13.74     20.63 
 Bq                    18.27     13.74     20.83 
 Bq                    18.27     13.74     21.03 
 Bq                    18.27     13.74     21.23 
 Bq                    18.27     13.74     21.43 
 Bq                    18.27     13.94     7.23 
 Bq                    18.27     13.94     7.43 
 Bq                    18.27     13.94     7.63 
 Bq                    18.27     13.94     7.83 
 Bq                    18.27     13.94     8.03 
 Bq                    18.27     13.94     8.23 
 Bq                    18.27     13.94     8.43 
 Bq                    18.27     13.94     8.63 
 Bq                    18.27     13.94     8.83 
 Bq                    18.27     13.94     9.03 
 Bq                    18.27     13.94     9.23 
 Bq                    18.27     13.94     9.43 
 Bq                    18.27     13.94     9.63 
 Bq                    18.27     13.94     9.83 
 Bq                    18.27     13.94     10.03 
 Bq                    18.27     13.94     10.23 
 Bq                    18.27     13.94     10.43 
 Bq                    18.27     13.94     10.63 
 Bq                    18.27     13.94     10.83 
 Bq                    18.27     13.94     11.03 
 Bq                    18.27     13.94     11.23 
 Bq                    18.27     13.94     11.43 
 Bq                    18.27     13.94     11.63 
 Bq                    18.27     13.94     11.83 
 Bq                    18.27     13.94     12.03 
 Bq                    18.27     13.94     12.23 
 Bq                    18.27     13.94     12.43 
 Bq                    18.27     13.94     12.63 
 Bq                    18.27     13.94     12.83 
 Bq                    18.27     13.94     13.03 
 Bq                    18.27     13.94     13.23 
 Bq                    18.27     13.94     13.43 
 Bq                    18.27     13.94     13.63 
 Bq                    18.27     13.94     13.83 
 Bq                    18.27     13.94     14.03 
 Bq                    18.27     13.94     14.23 
 Bq                    18.27     13.94     14.43 
 Bq                    18.27     13.94     14.63 
 Bq                    18.27     13.94     14.83 
 Bq                    18.27     13.94     15.03 
 Bq                    18.27     13.94     15.23 
 Bq                    18.27     13.94     15.43 
 Bq                    18.27     13.94     15.63 
 Bq                    18.27     13.94     15.83 
 Bq                    18.27     13.94     16.03 
 Bq                    18.27     13.94     16.23 
 Bq                    18.27     13.94     16.43 
 Bq                    18.27     13.94     16.63 
 Bq                    18.27     13.94     16.83 
 Bq                    18.27     13.94     17.03 
 Bq                    18.27     13.94     17.23 
 Bq                    18.27     13.94     17.43 
 Bq                    18.27     13.94     17.63 
 Bq                    18.27     13.94     17.83 
 Bq                    18.27     13.94     18.03 
 Bq                    18.27     13.94     18.23 
 Bq                    18.27     13.94     18.43 
 Bq                    18.27     13.94     18.63 
 Bq                    18.27     13.94     18.83 
 Bq                    18.27     13.94     19.03 
 Bq                    18.27     13.94     19.23 
 Bq                    18.27     13.94     19.43 
 Bq                    18.27     13.94     19.63 
 Bq                    18.27     13.94     19.83 
 Bq                    18.27     13.94     20.03 
 Bq                    18.27     13.94     20.23 
 Bq                    18.27     13.94     20.43 
 Bq                    18.27     13.94     20.63 
 Bq                    18.27     13.94     20.83 
 Bq                    18.27     13.94     21.03 
 Bq                    18.27     13.94     21.23 
 Bq                    18.27     13.94     21.43 
 Bq                    18.27     14.14     7.23 
 Bq                    18.27     14.14     7.43 
 Bq                    18.27     14.14     7.63 
 Bq                    18.27     14.14     7.83 
 Bq                    18.27     14.14     8.03 
 Bq                    18.27     14.14     8.23 
 Bq                    18.27     14.14     8.43 
 Bq                    18.27     14.14     8.63 
 Bq                    18.27     14.14     8.83 
 Bq                    18.27     14.14     9.03 
 Bq                    18.27     14.14     9.23 
 Bq                    18.27     14.14     9.43 
 Bq                    18.27     14.14     9.63 
 Bq                    18.27     14.14     9.83 
 Bq                    18.27     14.14     10.03 
 Bq                    18.27     14.14     10.23 
 Bq                    18.27     14.14     10.43 
 Bq                    18.27     14.14     10.63 
 Bq                    18.27     14.14     10.83 
 Bq                    18.27     14.14     11.03 
 Bq                    18.27     14.14     11.23 
 Bq                    18.27     14.14     11.43 
 Bq                    18.27     14.14     11.63 
 Bq                    18.27     14.14     11.83 
 Bq                    18.27     14.14     12.03 
 Bq                    18.27     14.14     12.23 
 Bq                    18.27     14.14     12.43 
 Bq                    18.27     14.14     12.63 
 Bq                    18.27     14.14     12.83 
 Bq                    18.27     14.14     13.03 
 Bq                    18.27     14.14     13.23 
 Bq                    18.27     14.14     13.43 
 Bq                    18.27     14.14     13.63 
 Bq                    18.27     14.14     13.83 
 Bq                    18.27     14.14     14.03 
 Bq                    18.27     14.14     14.23 
 Bq                    18.27     14.14     14.43 
 Bq                    18.27     14.14     14.63 
 Bq                    18.27     14.14     14.83 
 Bq                    18.27     14.14     15.03 
 Bq                    18.27     14.14     15.23 
 Bq                    18.27     14.14     15.43 
 Bq                    18.27     14.14     15.63 
 Bq                    18.27     14.14     15.83 
 Bq                    18.27     14.14     16.03 
 Bq                    18.27     14.14     16.23 
 Bq                    18.27     14.14     16.43 
 Bq                    18.27     14.14     16.63 
 Bq                    18.27     14.14     16.83 
 Bq                    18.27     14.14     17.03 
 Bq                    18.27     14.14     17.23 
 Bq                    18.27     14.14     17.43 
 Bq                    18.27     14.14     17.63 
 Bq                    18.27     14.14     17.83 
 Bq                    18.27     14.14     18.03 
 Bq                    18.27     14.14     18.23 
 Bq                    18.27     14.14     18.43 
 Bq                    18.27     14.14     18.63 
 Bq                    18.27     14.14     18.83 
 Bq                    18.27     14.14     19.03 
 Bq                    18.27     14.14     19.23 
 Bq                    18.27     14.14     19.43 
 Bq                    18.27     14.14     19.63 
 Bq                    18.27     14.14     19.83 
 Bq                    18.27     14.14     20.03 
 Bq                    18.27     14.14     20.23 
 Bq                    18.27     14.14     20.43 
 Bq                    18.27     14.14     20.63 
 Bq                    18.27     14.14     20.83 
 Bq                    18.27     14.14     21.03 
 Bq                    18.27     14.14     21.23 
 Bq                    18.27     14.14     21.43 
 Bq                    18.27     14.34     7.23 
 Bq                    18.27     14.34     7.43 
 Bq                    18.27     14.34     7.63 
 Bq                    18.27     14.34     7.83 
 Bq                    18.27     14.34     8.03 
 Bq                    18.27     14.34     8.23 
 Bq                    18.27     14.34     8.43 
 Bq                    18.27     14.34     8.63 
 Bq                    18.27     14.34     8.83 
 Bq                    18.27     14.34     9.03 
 Bq                    18.27     14.34     9.23 
 Bq                    18.27     14.34     9.43 
 Bq                    18.27     14.34     9.63 
 Bq                    18.27     14.34     9.83 
 Bq                    18.27     14.34     10.03 
 Bq                    18.27     14.34     10.23 
 Bq                    18.27     14.34     10.43 
 Bq                    18.27     14.34     10.63 
 Bq                    18.27     14.34     10.83 
 Bq                    18.27     14.34     11.03 
 Bq                    18.27     14.34     11.23 
 Bq                    18.27     14.34     11.43 
 Bq                    18.27     14.34     11.63 
 Bq                    18.27     14.34     11.83 
 Bq                    18.27     14.34     12.03 
 Bq                    18.27     14.34     12.23 
 Bq                    18.27     14.34     12.43 
 Bq                    18.27     14.34     12.63 
 Bq                    18.27     14.34     12.83 
 Bq                    18.27     14.34     13.03 
 Bq                    18.27     14.34     13.23 
 Bq                    18.27     14.34     13.43 
 Bq                    18.27     14.34     13.63 
 Bq                    18.27     14.34     13.83 
 Bq                    18.27     14.34     14.03 
 Bq                    18.27     14.34     14.23 
 Bq                    18.27     14.34     14.43 
 Bq                    18.27     14.34     14.63 
 Bq                    18.27     14.34     14.83 
 Bq                    18.27     14.34     15.03 
 Bq                    18.27     14.34     15.23 
 Bq                    18.27     14.34     15.43 
 Bq                    18.27     14.34     15.63 
 Bq                    18.27     14.34     15.83 
 Bq                    18.27     14.34     16.03 
 Bq                    18.27     14.34     16.23 
 Bq                    18.27     14.34     16.43 
 Bq                    18.27     14.34     16.63 
 Bq                    18.27     14.34     16.83 
 Bq                    18.27     14.34     17.03 
 Bq                    18.27     14.34     17.23 
 Bq                    18.27     14.34     17.43 
 Bq                    18.27     14.34     17.63 
 Bq                    18.27     14.34     17.83 
 Bq                    18.27     14.34     18.03 
 Bq                    18.27     14.34     18.23 
 Bq                    18.27     14.34     18.43 
 Bq                    18.27     14.34     18.63 
 Bq                    18.27     14.34     18.83 
 Bq                    18.27     14.34     19.03 
 Bq                    18.27     14.34     19.23 
 Bq                    18.27     14.34     19.43 
 Bq                    18.27     14.34     19.63 
 Bq                    18.27     14.34     19.83 
 Bq                    18.27     14.34     20.03 
 Bq                    18.27     14.34     20.23 
 Bq                    18.27     14.34     20.43 
 Bq                    18.27     14.34     20.63 
 Bq                    18.27     14.34     20.83 
 Bq                    18.27     14.34     21.03 
 Bq                    18.27     14.34     21.23 
 Bq                    18.27     14.34     21.43 
 Bq                    18.27     14.54     7.23 
 Bq                    18.27     14.54     7.43 
 Bq                    18.27     14.54     7.63 
 Bq                    18.27     14.54     7.83 
 Bq                    18.27     14.54     8.03 
 Bq                    18.27     14.54     8.23 
 Bq                    18.27     14.54     8.43 
 Bq                    18.27     14.54     8.63 
 Bq                    18.27     14.54     8.83 
 Bq                    18.27     14.54     9.03 
 Bq                    18.27     14.54     9.23 
 Bq                    18.27     14.54     9.43 
 Bq                    18.27     14.54     9.63 
 Bq                    18.27     14.54     9.83 
 Bq                    18.27     14.54     10.03 
 Bq                    18.27     14.54     10.23 
 Bq                    18.27     14.54     10.43 
 Bq                    18.27     14.54     10.63 
 Bq                    18.27     14.54     10.83 
 Bq                    18.27     14.54     11.03 
 Bq                    18.27     14.54     11.23 
 Bq                    18.27     14.54     11.43 
 Bq                    18.27     14.54     11.63 
 Bq                    18.27     14.54     11.83 
 Bq                    18.27     14.54     12.03 
 Bq                    18.27     14.54     12.23 
 Bq                    18.27     14.54     12.43 
 Bq                    18.27     14.54     12.63 
 Bq                    18.27     14.54     12.83 
 Bq                    18.27     14.54     13.03 
 Bq                    18.27     14.54     13.23 
 Bq                    18.27     14.54     13.43 
 Bq                    18.27     14.54     13.63 
 Bq                    18.27     14.54     13.83 
 Bq                    18.27     14.54     14.03 
 Bq                    18.27     14.54     14.23 
 Bq                    18.27     14.54     14.43 
 Bq                    18.27     14.54     14.63 
 Bq                    18.27     14.54     14.83 
 Bq                    18.27     14.54     15.03 
 Bq                    18.27     14.54     15.23 
 Bq                    18.27     14.54     15.43 
 Bq                    18.27     14.54     15.63 
 Bq                    18.27     14.54     15.83 
 Bq                    18.27     14.54     16.03 
 Bq                    18.27     14.54     16.23 
 Bq                    18.27     14.54     16.43 
 Bq                    18.27     14.54     16.63 
 Bq                    18.27     14.54     16.83 
 Bq                    18.27     14.54     17.03 
 Bq                    18.27     14.54     17.23 
 Bq                    18.27     14.54     17.43 
 Bq                    18.27     14.54     17.63 
 Bq                    18.27     14.54     17.83 
 Bq                    18.27     14.54     18.03 
 Bq                    18.27     14.54     18.23 
 Bq                    18.27     14.54     18.43 
 Bq                    18.27     14.54     18.63 
 Bq                    18.27     14.54     18.83 
 Bq                    18.27     14.54     19.03 
 Bq                    18.27     14.54     19.23 
 Bq                    18.27     14.54     19.43 
 Bq                    18.27     14.54     19.63 
 Bq                    18.27     14.54     19.83 
 Bq                    18.27     14.54     20.03 
 Bq                    18.27     14.54     20.23 
 Bq                    18.27     14.54     20.43 
 Bq                    18.27     14.54     20.63 
 Bq                    18.27     14.54     20.83 
 Bq                    18.27     14.54     21.03 
 Bq                    18.27     14.54     21.23 
 Bq                    18.27     14.54     21.43 
 Bq                    18.27     14.74     7.23 
 Bq                    18.27     14.74     7.43 
 Bq                    18.27     14.74     7.63 
 Bq                    18.27     14.74     7.83 
 Bq                    18.27     14.74     8.03 
 Bq                    18.27     14.74     8.23 
 Bq                    18.27     14.74     8.43 
 Bq                    18.27     14.74     8.63 
 Bq                    18.27     14.74     8.83 
 Bq                    18.27     14.74     9.03 
 Bq                    18.27     14.74     9.23 
 Bq                    18.27     14.74     9.43 
 Bq                    18.27     14.74     9.63 
 Bq                    18.27     14.74     9.83 
 Bq                    18.27     14.74     10.03 
 Bq                    18.27     14.74     10.23 
 Bq                    18.27     14.74     10.43 
 Bq                    18.27     14.74     10.63 
 Bq                    18.27     14.74     10.83 
 Bq                    18.27     14.74     11.03 
 Bq                    18.27     14.74     11.23 
 Bq                    18.27     14.74     11.43 
 Bq                    18.27     14.74     11.63 
 Bq                    18.27     14.74     11.83 
 Bq                    18.27     14.74     12.03 
 Bq                    18.27     14.74     12.23 
 Bq                    18.27     14.74     12.43 
 Bq                    18.27     14.74     12.63 
 Bq                    18.27     14.74     12.83 
 Bq                    18.27     14.74     13.03 
 Bq                    18.27     14.74     13.23 
 Bq                    18.27     14.74     13.43 
 Bq                    18.27     14.74     13.63 
 Bq                    18.27     14.74     13.83 
 Bq                    18.27     14.74     14.03 
 Bq                    18.27     14.74     14.23 
 Bq                    18.27     14.74     14.43 
 Bq                    18.27     14.74     14.63 
 Bq                    18.27     14.74     14.83 
 Bq                    18.27     14.74     15.03 
 Bq                    18.27     14.74     15.23 
 Bq                    18.27     14.74     15.43 
 Bq                    18.27     14.74     15.63 
 Bq                    18.27     14.74     15.83 
 Bq                    18.27     14.74     16.03 
 Bq                    18.27     14.74     16.23 
 Bq                    18.27     14.74     16.43 
 Bq                    18.27     14.74     16.63 
 Bq                    18.27     14.74     16.83 
 Bq                    18.27     14.74     17.03 
 Bq                    18.27     14.74     17.23 
 Bq                    18.27     14.74     17.43 
 Bq                    18.27     14.74     17.63 
 Bq                    18.27     14.74     17.83 
 Bq                    18.27     14.74     18.03 
 Bq                    18.27     14.74     18.23 
 Bq                    18.27     14.74     18.43 
 Bq                    18.27     14.74     18.63 
 Bq                    18.27     14.74     18.83 
 Bq                    18.27     14.74     19.03 
 Bq                    18.27     14.74     19.23 
 Bq                    18.27     14.74     19.43 
 Bq                    18.27     14.74     19.63 
 Bq                    18.27     14.74     19.83 
 Bq                    18.27     14.74     20.03 
 Bq                    18.27     14.74     20.23 
 Bq                    18.27     14.74     20.43 
 Bq                    18.27     14.74     20.63 
 Bq                    18.27     14.74     20.83 
 Bq                    18.27     14.74     21.03 
 Bq                    18.27     14.74     21.23 
 Bq                    18.27     14.74     21.43 
 Bq                    18.27     14.94     7.23 
 Bq                    18.27     14.94     7.43 
 Bq                    18.27     14.94     7.63 
 Bq                    18.27     14.94     7.83 
 Bq                    18.27     14.94     8.03 
 Bq                    18.27     14.94     8.23 
 Bq                    18.27     14.94     8.43 
 Bq                    18.27     14.94     8.63 
 Bq                    18.27     14.94     8.83 
 Bq                    18.27     14.94     9.03 
 Bq                    18.27     14.94     9.23 
 Bq                    18.27     14.94     9.43 
 Bq                    18.27     14.94     9.63 
 Bq                    18.27     14.94     9.83 
 Bq                    18.27     14.94     10.03 
 Bq                    18.27     14.94     10.23 
 Bq                    18.27     14.94     10.43 
 Bq                    18.27     14.94     10.63 
 Bq                    18.27     14.94     10.83 
 Bq                    18.27     14.94     11.03 
 Bq                    18.27     14.94     11.23 
 Bq                    18.27     14.94     11.43 
 Bq                    18.27     14.94     11.63 
 Bq                    18.27     14.94     11.83 
 Bq                    18.27     14.94     12.03 
 Bq                    18.27     14.94     12.23 
 Bq                    18.27     14.94     12.43 
 Bq                    18.27     14.94     12.63 
 Bq                    18.27     14.94     12.83 
 Bq                    18.27     14.94     13.03 
 Bq                    18.27     14.94     13.23 
 Bq                    18.27     14.94     13.43 
 Bq                    18.27     14.94     13.63 
 Bq                    18.27     14.94     13.83 
 Bq                    18.27     14.94     14.03 
 Bq                    18.27     14.94     14.23 
 Bq                    18.27     14.94     14.43 
 Bq                    18.27     14.94     14.63 
 Bq                    18.27     14.94     14.83 
 Bq                    18.27     14.94     15.03 
 Bq                    18.27     14.94     15.23 
 Bq                    18.27     14.94     15.43 
 Bq                    18.27     14.94     15.63 
 Bq                    18.27     14.94     15.83 
 Bq                    18.27     14.94     16.03 
 Bq                    18.27     14.94     16.23 
 Bq                    18.27     14.94     16.43 
 Bq                    18.27     14.94     16.63 
 Bq                    18.27     14.94     16.83 
 Bq                    18.27     14.94     17.03 
 Bq                    18.27     14.94     17.23 
 Bq                    18.27     14.94     17.43 
 Bq                    18.27     14.94     17.63 
 Bq                    18.27     14.94     17.83 
 Bq                    18.27     14.94     18.03 
 Bq                    18.27     14.94     18.23 
 Bq                    18.27     14.94     18.43 
 Bq                    18.27     14.94     18.63 
 Bq                    18.27     14.94     18.83 
 Bq                    18.27     14.94     19.03 
 Bq                    18.27     14.94     19.23 
 Bq                    18.27     14.94     19.43 
 Bq                    18.27     14.94     19.63 
 Bq                    18.27     14.94     19.83 
 Bq                    18.27     14.94     20.03 
 Bq                    18.27     14.94     20.23 
 Bq                    18.27     14.94     20.43 
 Bq                    18.27     14.94     20.63 
 Bq                    18.27     14.94     20.83 
 Bq                    18.27     14.94     21.03 
 Bq                    18.27     14.94     21.23 
 Bq                    18.27     14.94     21.43 
 Bq                    18.47    -1.26      7.23 
 Bq                    18.47    -1.26      7.43 
 Bq                    18.47    -1.26      7.63 
 Bq                    18.47    -1.26      7.83 
 Bq                    18.47    -1.26      8.03 
 Bq                    18.47    -1.26      8.23 
 Bq                    18.47    -1.26      8.43 
 Bq                    18.47    -1.26      8.63 
 Bq                    18.47    -1.26      8.83 
 Bq                    18.47    -1.26      9.03 
 Bq                    18.47    -1.26      9.23 
 Bq                    18.47    -1.26      9.43 
 Bq                    18.47    -1.26      9.63 
 Bq                    18.47    -1.26      9.83 
 Bq                    18.47    -1.26      10.03 
 Bq                    18.47    -1.26      10.23 
 Bq                    18.47    -1.26      10.43 
 Bq                    18.47    -1.26      10.63 
 Bq                    18.47    -1.26      10.83 
 Bq                    18.47    -1.26      11.03 
 Bq                    18.47    -1.26      11.23 
 Bq                    18.47    -1.26      11.43 
 Bq                    18.47    -1.26      11.63 
 Bq                    18.47    -1.26      11.83 
 Bq                    18.47    -1.26      12.03 
 Bq                    18.47    -1.26      12.23 
 Bq                    18.47    -1.26      12.43 
 Bq                    18.47    -1.26      12.63 
 Bq                    18.47    -1.26      12.83 
 Bq                    18.47    -1.26      13.03 
 Bq                    18.47    -1.26      13.23 
 Bq                    18.47    -1.26      13.43 
 Bq                    18.47    -1.26      13.63 
 Bq                    18.47    -1.26      13.83 
 Bq                    18.47    -1.26      14.03 
 Bq                    18.47    -1.26      14.23 
 Bq                    18.47    -1.26      14.43 
 Bq                    18.47    -1.26      14.63 
 Bq                    18.47    -1.26      14.83 
 Bq                    18.47    -1.26      15.03 
 Bq                    18.47    -1.26      15.23 
 Bq                    18.47    -1.26      15.43 
 Bq                    18.47    -1.26      15.63 
 Bq                    18.47    -1.26      15.83 
 Bq                    18.47    -1.26      16.03 
 Bq                    18.47    -1.26      16.23 
 Bq                    18.47    -1.26      16.43 
 Bq                    18.47    -1.26      16.63 
 Bq                    18.47    -1.26      16.83 
 Bq                    18.47    -1.26      17.03 
 Bq                    18.47    -1.26      17.23 
 Bq                    18.47    -1.26      17.43 
 Bq                    18.47    -1.26      17.63 
 Bq                    18.47    -1.26      17.83 
 Bq                    18.47    -1.26      18.03 
 Bq                    18.47    -1.26      18.23 
 Bq                    18.47    -1.26      18.43 
 Bq                    18.47    -1.26      18.63 
 Bq                    18.47    -1.26      18.83 
 Bq                    18.47    -1.26      19.03 
 Bq                    18.47    -1.26      19.23 
 Bq                    18.47    -1.26      19.43 
 Bq                    18.47    -1.26      19.63 
 Bq                    18.47    -1.26      19.83 
 Bq                    18.47    -1.26      20.03 
 Bq                    18.47    -1.26      20.23 
 Bq                    18.47    -1.26      20.43 
 Bq                    18.47    -1.26      20.63 
 Bq                    18.47    -1.26      20.83 
 Bq                    18.47    -1.26      21.03 
 Bq                    18.47    -1.26      21.23 
 Bq                    18.47    -1.26      21.43 
 Bq                    18.47    -1.06      7.23 
 Bq                    18.47    -1.06      7.43 
 Bq                    18.47    -1.06      7.63 
 Bq                    18.47    -1.06      7.83 
 Bq                    18.47    -1.06      8.03 
 Bq                    18.47    -1.06      8.23 
 Bq                    18.47    -1.06      8.43 
 Bq                    18.47    -1.06      8.63 
 Bq                    18.47    -1.06      8.83 
 Bq                    18.47    -1.06      9.03 
 Bq                    18.47    -1.06      9.23 
 Bq                    18.47    -1.06      9.43 
 Bq                    18.47    -1.06      9.63 
 Bq                    18.47    -1.06      9.83 
 Bq                    18.47    -1.06      10.03 
 Bq                    18.47    -1.06      10.23 
 Bq                    18.47    -1.06      10.43 
 Bq                    18.47    -1.06      10.63 
 Bq                    18.47    -1.06      10.83 
 Bq                    18.47    -1.06      11.03 
 Bq                    18.47    -1.06      11.23 
 Bq                    18.47    -1.06      11.43 
 Bq                    18.47    -1.06      11.63 
 Bq                    18.47    -1.06      11.83 
 Bq                    18.47    -1.06      12.03 
 Bq                    18.47    -1.06      12.23 
 Bq                    18.47    -1.06      12.43 
 Bq                    18.47    -1.06      12.63 
 Bq                    18.47    -1.06      12.83 
 Bq                    18.47    -1.06      13.03 
 Bq                    18.47    -1.06      13.23 
 Bq                    18.47    -1.06      13.43 
 Bq                    18.47    -1.06      13.63 
 Bq                    18.47    -1.06      13.83 
 Bq                    18.47    -1.06      14.03 
 Bq                    18.47    -1.06      14.23 
 Bq                    18.47    -1.06      14.43 
 Bq                    18.47    -1.06      14.63 
 Bq                    18.47    -1.06      14.83 
 Bq                    18.47    -1.06      15.03 
 Bq                    18.47    -1.06      15.23 
 Bq                    18.47    -1.06      15.43 
 Bq                    18.47    -1.06      15.63 
 Bq                    18.47    -1.06      15.83 
 Bq                    18.47    -1.06      16.03 
 Bq                    18.47    -1.06      16.23 
 Bq                    18.47    -1.06      16.43 
 Bq                    18.47    -1.06      16.63 
 Bq                    18.47    -1.06      16.83 
 Bq                    18.47    -1.06      17.03 
 Bq                    18.47    -1.06      17.23 
 Bq                    18.47    -1.06      17.43 
 Bq                    18.47    -1.06      17.63 
 Bq                    18.47    -1.06      17.83 
 Bq                    18.47    -1.06      18.03 
 Bq                    18.47    -1.06      18.23 
 Bq                    18.47    -1.06      18.43 
 Bq                    18.47    -1.06      18.63 
 Bq                    18.47    -1.06      18.83 
 Bq                    18.47    -1.06      19.03 
 Bq                    18.47    -1.06      19.23 
 Bq                    18.47    -1.06      19.43 
 Bq                    18.47    -1.06      19.63 
 Bq                    18.47    -1.06      19.83 
 Bq                    18.47    -1.06      20.03 
 Bq                    18.47    -1.06      20.23 
 Bq                    18.47    -1.06      20.43 
 Bq                    18.47    -1.06      20.63 
 Bq                    18.47    -1.06      20.83 
 Bq                    18.47    -1.06      21.03 
 Bq                    18.47    -1.06      21.23 
 Bq                    18.47    -1.06      21.43 
 Bq                    18.47    -0.86      7.23 
 Bq                    18.47    -0.86      7.43 
 Bq                    18.47    -0.86      7.63 
 Bq                    18.47    -0.86      7.83 
 Bq                    18.47    -0.86      8.03 
 Bq                    18.47    -0.86      8.23 
 Bq                    18.47    -0.86      8.43 
 Bq                    18.47    -0.86      8.63 
 Bq                    18.47    -0.86      8.83 
 Bq                    18.47    -0.86      9.03 
 Bq                    18.47    -0.86      9.23 
 Bq                    18.47    -0.86      9.43 
 Bq                    18.47    -0.86      9.63 
 Bq                    18.47    -0.86      9.83 
 Bq                    18.47    -0.86      10.03 
 Bq                    18.47    -0.86      10.23 
 Bq                    18.47    -0.86      10.43 
 Bq                    18.47    -0.86      10.63 
 Bq                    18.47    -0.86      10.83 
 Bq                    18.47    -0.86      11.03 
 Bq                    18.47    -0.86      11.23 
 Bq                    18.47    -0.86      11.43 
 Bq                    18.47    -0.86      11.63 
 Bq                    18.47    -0.86      11.83 
 Bq                    18.47    -0.86      12.03 
 Bq                    18.47    -0.86      12.23 
 Bq                    18.47    -0.86      12.43 
 Bq                    18.47    -0.86      12.63 
 Bq                    18.47    -0.86      12.83 
 Bq                    18.47    -0.86      13.03 
 Bq                    18.47    -0.86      13.23 
 Bq                    18.47    -0.86      13.43 
 Bq                    18.47    -0.86      13.63 
 Bq                    18.47    -0.86      13.83 
 Bq                    18.47    -0.86      14.03 
 Bq                    18.47    -0.86      14.23 
 Bq                    18.47    -0.86      14.43 
 Bq                    18.47    -0.86      14.63 
 Bq                    18.47    -0.86      14.83 
 Bq                    18.47    -0.86      15.03 
 Bq                    18.47    -0.86      15.23 
 Bq                    18.47    -0.86      15.43 
 Bq                    18.47    -0.86      15.63 
 Bq                    18.47    -0.86      15.83 
 Bq                    18.47    -0.86      16.03 
 Bq                    18.47    -0.86      16.23 
 Bq                    18.47    -0.86      16.43 
 Bq                    18.47    -0.86      16.63 
 Bq                    18.47    -0.86      16.83 
 Bq                    18.47    -0.86      17.03 
 Bq                    18.47    -0.86      17.23 
 Bq                    18.47    -0.86      17.43 
 Bq                    18.47    -0.86      17.63 
 Bq                    18.47    -0.86      17.83 
 Bq                    18.47    -0.86      18.03 
 Bq                    18.47    -0.86      18.23 
 Bq                    18.47    -0.86      18.43 
 Bq                    18.47    -0.86      18.63 
 Bq                    18.47    -0.86      18.83 
 Bq                    18.47    -0.86      19.03 
 Bq                    18.47    -0.86      19.23 
 Bq                    18.47    -0.86      19.43 
 Bq                    18.47    -0.86      19.63 
 Bq                    18.47    -0.86      19.83 
 Bq                    18.47    -0.86      20.03 
 Bq                    18.47    -0.86      20.23 
 Bq                    18.47    -0.86      20.43 
 Bq                    18.47    -0.86      20.63 
 Bq                    18.47    -0.86      20.83 
 Bq                    18.47    -0.86      21.03 
 Bq                    18.47    -0.86      21.23 
 Bq                    18.47    -0.86      21.43 
 Bq                    18.47    -0.66      7.23 
 Bq                    18.47    -0.66      7.43 
 Bq                    18.47    -0.66      7.63 
 Bq                    18.47    -0.66      7.83 
 Bq                    18.47    -0.66      8.03 
 Bq                    18.47    -0.66      8.23 
 Bq                    18.47    -0.66      8.43 
 Bq                    18.47    -0.66      8.63 
 Bq                    18.47    -0.66      8.83 
 Bq                    18.47    -0.66      9.03 
 Bq                    18.47    -0.66      9.23 
 Bq                    18.47    -0.66      9.43 
 Bq                    18.47    -0.66      9.63 
 Bq                    18.47    -0.66      9.83 
 Bq                    18.47    -0.66      10.03 
 Bq                    18.47    -0.66      10.23 
 Bq                    18.47    -0.66      10.43 
 Bq                    18.47    -0.66      10.63 
 Bq                    18.47    -0.66      10.83 
 Bq                    18.47    -0.66      11.03 
 Bq                    18.47    -0.66      11.23 
 Bq                    18.47    -0.66      11.43 
 Bq                    18.47    -0.66      11.63 
 Bq                    18.47    -0.66      11.83 
 Bq                    18.47    -0.66      12.03 
 Bq                    18.47    -0.66      12.23 
 Bq                    18.47    -0.66      12.43 
 Bq                    18.47    -0.66      12.63 
 Bq                    18.47    -0.66      12.83 
 Bq                    18.47    -0.66      13.03 
 Bq                    18.47    -0.66      13.23 
 Bq                    18.47    -0.66      13.43 
 Bq                    18.47    -0.66      13.63 
 Bq                    18.47    -0.66      13.83 
 Bq                    18.47    -0.66      14.03 
 Bq                    18.47    -0.66      14.23 
 Bq                    18.47    -0.66      14.43 
 Bq                    18.47    -0.66      14.63 
 Bq                    18.47    -0.66      14.83 
 Bq                    18.47    -0.66      15.03 
 Bq                    18.47    -0.66      15.23 
 Bq                    18.47    -0.66      15.43 
 Bq                    18.47    -0.66      15.63 
 Bq                    18.47    -0.66      15.83 
 Bq                    18.47    -0.66      16.03 
 Bq                    18.47    -0.66      16.23 
 Bq                    18.47    -0.66      16.43 
 Bq                    18.47    -0.66      16.63 
 Bq                    18.47    -0.66      16.83 
 Bq                    18.47    -0.66      17.03 
 Bq                    18.47    -0.66      17.23 
 Bq                    18.47    -0.66      17.43 
 Bq                    18.47    -0.66      17.63 
 Bq                    18.47    -0.66      17.83 
 Bq                    18.47    -0.66      18.03 
 Bq                    18.47    -0.66      18.23 
 Bq                    18.47    -0.66      18.43 
 Bq                    18.47    -0.66      18.63 
 Bq                    18.47    -0.66      18.83 
 Bq                    18.47    -0.66      19.03 
 Bq                    18.47    -0.66      19.23 
 Bq                    18.47    -0.66      19.43 
 Bq                    18.47    -0.66      19.63 
 Bq                    18.47    -0.66      19.83 
 Bq                    18.47    -0.66      20.03 
 Bq                    18.47    -0.66      20.23 
 Bq                    18.47    -0.66      20.43 
 Bq                    18.47    -0.66      20.63 
 Bq                    18.47    -0.66      20.83 
 Bq                    18.47    -0.66      21.03 
 Bq                    18.47    -0.66      21.23 
 Bq                    18.47    -0.66      21.43 
 Bq                    18.47    -0.46      7.23 
 Bq                    18.47    -0.46      7.43 
 Bq                    18.47    -0.46      7.63 
 Bq                    18.47    -0.46      7.83 
 Bq                    18.47    -0.46      8.03 
 Bq                    18.47    -0.46      8.23 
 Bq                    18.47    -0.46      8.43 
 Bq                    18.47    -0.46      8.63 
 Bq                    18.47    -0.46      8.83 
 Bq                    18.47    -0.46      9.03 
 Bq                    18.47    -0.46      9.23 
 Bq                    18.47    -0.46      9.43 
 Bq                    18.47    -0.46      9.63 
 Bq                    18.47    -0.46      9.83 
 Bq                    18.47    -0.46      10.03 
 Bq                    18.47    -0.46      10.23 
 Bq                    18.47    -0.46      10.43 
 Bq                    18.47    -0.46      10.63 
 Bq                    18.47    -0.46      10.83 
 Bq                    18.47    -0.46      11.03 
 Bq                    18.47    -0.46      11.23 
 Bq                    18.47    -0.46      11.43 
 Bq                    18.47    -0.46      11.63 
 Bq                    18.47    -0.46      11.83 
 Bq                    18.47    -0.46      12.03 
 Bq                    18.47    -0.46      12.23 
 Bq                    18.47    -0.46      12.43 
 Bq                    18.47    -0.46      12.63 
 Bq                    18.47    -0.46      12.83 
 Bq                    18.47    -0.46      13.03 
 Bq                    18.47    -0.46      13.23 
 Bq                    18.47    -0.46      13.43 
 Bq                    18.47    -0.46      13.63 
 Bq                    18.47    -0.46      13.83 
 Bq                    18.47    -0.46      14.03 
 Bq                    18.47    -0.46      14.23 
 Bq                    18.47    -0.46      14.43 
 Bq                    18.47    -0.46      14.63 
 Bq                    18.47    -0.46      14.83 
 Bq                    18.47    -0.46      15.03 
 Bq                    18.47    -0.46      15.23 
 Bq                    18.47    -0.46      15.43 
 Bq                    18.47    -0.46      15.63 
 Bq                    18.47    -0.46      15.83 
 Bq                    18.47    -0.46      16.03 
 Bq                    18.47    -0.46      16.23 
 Bq                    18.47    -0.46      16.43 
 Bq                    18.47    -0.46      16.63 
 Bq                    18.47    -0.46      16.83 
 Bq                    18.47    -0.46      17.03 
 Bq                    18.47    -0.46      17.23 
 Bq                    18.47    -0.46      17.43 
 Bq                    18.47    -0.46      17.63 
 Bq                    18.47    -0.46      17.83 
 Bq                    18.47    -0.46      18.03 
 Bq                    18.47    -0.46      18.23 
 Bq                    18.47    -0.46      18.43 
 Bq                    18.47    -0.46      18.63 
 Bq                    18.47    -0.46      18.83 
 Bq                    18.47    -0.46      19.03 
 Bq                    18.47    -0.46      19.23 
 Bq                    18.47    -0.46      19.43 
 Bq                    18.47    -0.46      19.63 
 Bq                    18.47    -0.46      19.83 
 Bq                    18.47    -0.46      20.03 
 Bq                    18.47    -0.46      20.23 
 Bq                    18.47    -0.46      20.43 
 Bq                    18.47    -0.46      20.63 
 Bq                    18.47    -0.46      20.83 
 Bq                    18.47    -0.46      21.03 
 Bq                    18.47    -0.46      21.23 
 Bq                    18.47    -0.46      21.43 
 Bq                    18.47    -0.26      7.23 
 Bq                    18.47    -0.26      7.43 
 Bq                    18.47    -0.26      7.63 
 Bq                    18.47    -0.26      7.83 
 Bq                    18.47    -0.26      8.03 
 Bq                    18.47    -0.26      8.23 
 Bq                    18.47    -0.26      8.43 
 Bq                    18.47    -0.26      8.63 
 Bq                    18.47    -0.26      8.83 
 Bq                    18.47    -0.26      9.03 
 Bq                    18.47    -0.26      9.23 
 Bq                    18.47    -0.26      9.43 
 Bq                    18.47    -0.26      9.63 
 Bq                    18.47    -0.26      9.83 
 Bq                    18.47    -0.26      10.03 
 Bq                    18.47    -0.26      10.23 
 Bq                    18.47    -0.26      10.43 
 Bq                    18.47    -0.26      10.63 
 Bq                    18.47    -0.26      10.83 
 Bq                    18.47    -0.26      11.03 
 Bq                    18.47    -0.26      11.23 
 Bq                    18.47    -0.26      11.43 
 Bq                    18.47    -0.26      11.63 
 Bq                    18.47    -0.26      11.83 
 Bq                    18.47    -0.26      12.03 
 Bq                    18.47    -0.26      12.23 
 Bq                    18.47    -0.26      12.43 
 Bq                    18.47    -0.26      12.63 
 Bq                    18.47    -0.26      12.83 
 Bq                    18.47    -0.26      13.03 
 Bq                    18.47    -0.26      13.23 
 Bq                    18.47    -0.26      13.43 
 Bq                    18.47    -0.26      13.63 
 Bq                    18.47    -0.26      13.83 
 Bq                    18.47    -0.26      14.03 
 Bq                    18.47    -0.26      14.23 
 Bq                    18.47    -0.26      14.43 
 Bq                    18.47    -0.26      14.63 
 Bq                    18.47    -0.26      14.83 
 Bq                    18.47    -0.26      15.03 
 Bq                    18.47    -0.26      15.23 
 Bq                    18.47    -0.26      15.43 
 Bq                    18.47    -0.26      15.63 
 Bq                    18.47    -0.26      15.83 
 Bq                    18.47    -0.26      16.03 
 Bq                    18.47    -0.26      16.23 
 Bq                    18.47    -0.26      16.43 
 Bq                    18.47    -0.26      16.63 
 Bq                    18.47    -0.26      16.83 
 Bq                    18.47    -0.26      17.03 
 Bq                    18.47    -0.26      17.23 
 Bq                    18.47    -0.26      17.43 
 Bq                    18.47    -0.26      17.63 
 Bq                    18.47    -0.26      17.83 
 Bq                    18.47    -0.26      18.03 
 Bq                    18.47    -0.26      18.23 
 Bq                    18.47    -0.26      18.43 
 Bq                    18.47    -0.26      18.63 
 Bq                    18.47    -0.26      18.83 
 Bq                    18.47    -0.26      19.03 
 Bq                    18.47    -0.26      19.23 
 Bq                    18.47    -0.26      19.43 
 Bq                    18.47    -0.26      19.63 
 Bq                    18.47    -0.26      19.83 
 Bq                    18.47    -0.26      20.03 
 Bq                    18.47    -0.26      20.23 
 Bq                    18.47    -0.26      20.43 
 Bq                    18.47    -0.26      20.63 
 Bq                    18.47    -0.26      20.83 
 Bq                    18.47    -0.26      21.03 
 Bq                    18.47    -0.26      21.23 
 Bq                    18.47    -0.26      21.43 
 Bq                    18.47    -0.06      7.23 
 Bq                    18.47    -0.06      7.43 
 Bq                    18.47    -0.06      7.63 
 Bq                    18.47    -0.06      7.83 
 Bq                    18.47    -0.06      8.03 
 Bq                    18.47    -0.06      8.23 
 Bq                    18.47    -0.06      8.43 
 Bq                    18.47    -0.06      8.63 
 Bq                    18.47    -0.06      8.83 
 Bq                    18.47    -0.06      9.03 
 Bq                    18.47    -0.06      9.23 
 Bq                    18.47    -0.06      9.43 
 Bq                    18.47    -0.06      9.63 
 Bq                    18.47    -0.06      9.83 
 Bq                    18.47    -0.06      10.03 
 Bq                    18.47    -0.06      10.23 
 Bq                    18.47    -0.06      10.43 
 Bq                    18.47    -0.06      10.63 
 Bq                    18.47    -0.06      10.83 
 Bq                    18.47    -0.06      11.03 
 Bq                    18.47    -0.06      11.23 
 Bq                    18.47    -0.06      11.43 
 Bq                    18.47    -0.06      11.63 
 Bq                    18.47    -0.06      11.83 
 Bq                    18.47    -0.06      12.03 
 Bq                    18.47    -0.06      12.23 
 Bq                    18.47    -0.06      12.43 
 Bq                    18.47    -0.06      12.63 
 Bq                    18.47    -0.06      12.83 
 Bq                    18.47    -0.06      13.03 
 Bq                    18.47    -0.06      13.23 
 Bq                    18.47    -0.06      13.43 
 Bq                    18.47    -0.06      13.63 
 Bq                    18.47    -0.06      13.83 
 Bq                    18.47    -0.06      14.03 
 Bq                    18.47    -0.06      14.23 
 Bq                    18.47    -0.06      14.43 
 Bq                    18.47    -0.06      14.63 
 Bq                    18.47    -0.06      14.83 
 Bq                    18.47    -0.06      15.03 
 Bq                    18.47    -0.06      15.23 
 Bq                    18.47    -0.06      15.43 
 Bq                    18.47    -0.06      15.63 
 Bq                    18.47    -0.06      15.83 
 Bq                    18.47    -0.06      16.03 
 Bq                    18.47    -0.06      16.23 
 Bq                    18.47    -0.06      16.43 
 Bq                    18.47    -0.06      16.63 
 Bq                    18.47    -0.06      16.83 
 Bq                    18.47    -0.06      17.03 
 Bq                    18.47    -0.06      17.23 
 Bq                    18.47    -0.06      17.43 
 Bq                    18.47    -0.06      17.63 
 Bq                    18.47    -0.06      17.83 
 Bq                    18.47    -0.06      18.03 
 Bq                    18.47    -0.06      18.23 
 Bq                    18.47    -0.06      18.43 
 Bq                    18.47    -0.06      18.63 
 Bq                    18.47    -0.06      18.83 
 Bq                    18.47    -0.06      19.03 
 Bq                    18.47    -0.06      19.23 
 Bq                    18.47    -0.06      19.43 
 Bq                    18.47    -0.06      19.63 
 Bq                    18.47    -0.06      19.83 
 Bq                    18.47    -0.06      20.03 
 Bq                    18.47    -0.06      20.23 
 Bq                    18.47    -0.06      20.43 
 Bq                    18.47    -0.06      20.63 
 Bq                    18.47    -0.06      20.83 
 Bq                    18.47    -0.06      21.03 
 Bq                    18.47    -0.06      21.23 
 Bq                    18.47    -0.06      21.43 
 Bq                    18.47     0.14      7.23 
 Bq                    18.47     0.14      7.43 
 Bq                    18.47     0.14      7.63 
 Bq                    18.47     0.14      7.83 
 Bq                    18.47     0.14      8.03 
 Bq                    18.47     0.14      8.23 
 Bq                    18.47     0.14      8.43 
 Bq                    18.47     0.14      8.63 
 Bq                    18.47     0.14      8.83 
 Bq                    18.47     0.14      9.03 
 Bq                    18.47     0.14      9.23 
 Bq                    18.47     0.14      9.43 
 Bq                    18.47     0.14      9.63 
 Bq                    18.47     0.14      9.83 
 Bq                    18.47     0.14      10.03 
 Bq                    18.47     0.14      10.23 
 Bq                    18.47     0.14      10.43 
 Bq                    18.47     0.14      10.63 
 Bq                    18.47     0.14      10.83 
 Bq                    18.47     0.14      11.03 
 Bq                    18.47     0.14      11.23 
 Bq                    18.47     0.14      11.43 
 Bq                    18.47     0.14      11.63 
 Bq                    18.47     0.14      11.83 
 Bq                    18.47     0.14      12.03 
 Bq                    18.47     0.14      12.23 
 Bq                    18.47     0.14      12.43 
 Bq                    18.47     0.14      12.63 
 Bq                    18.47     0.14      12.83 
 Bq                    18.47     0.14      13.03 
 Bq                    18.47     0.14      13.23 
 Bq                    18.47     0.14      13.43 
 Bq                    18.47     0.14      13.63 
 Bq                    18.47     0.14      13.83 
 Bq                    18.47     0.14      14.03 
 Bq                    18.47     0.14      14.23 
 Bq                    18.47     0.14      14.43 
 Bq                    18.47     0.14      14.63 
 Bq                    18.47     0.14      14.83 
 Bq                    18.47     0.14      15.03 
 Bq                    18.47     0.14      15.23 
 Bq                    18.47     0.14      15.43 
 Bq                    18.47     0.14      15.63 
 Bq                    18.47     0.14      15.83 
 Bq                    18.47     0.14      16.03 
 Bq                    18.47     0.14      16.23 
 Bq                    18.47     0.14      16.43 
 Bq                    18.47     0.14      16.63 
 Bq                    18.47     0.14      16.83 
 Bq                    18.47     0.14      17.03 
 Bq                    18.47     0.14      17.23 
 Bq                    18.47     0.14      17.43 
 Bq                    18.47     0.14      17.63 
 Bq                    18.47     0.14      17.83 
 Bq                    18.47     0.14      18.03 
 Bq                    18.47     0.14      18.23 
 Bq                    18.47     0.14      18.43 
 Bq                    18.47     0.14      18.63 
 Bq                    18.47     0.14      18.83 
 Bq                    18.47     0.14      19.03 
 Bq                    18.47     0.14      19.23 
 Bq                    18.47     0.14      19.43 
 Bq                    18.47     0.14      19.63 
 Bq                    18.47     0.14      19.83 
 Bq                    18.47     0.14      20.03 
 Bq                    18.47     0.14      20.23 
 Bq                    18.47     0.14      20.43 
 Bq                    18.47     0.14      20.63 
 Bq                    18.47     0.14      20.83 
 Bq                    18.47     0.14      21.03 
 Bq                    18.47     0.14      21.23 
 Bq                    18.47     0.14      21.43 
 Bq                    18.47     0.34      7.23 
 Bq                    18.47     0.34      7.43 
 Bq                    18.47     0.34      7.63 
 Bq                    18.47     0.34      7.83 
 Bq                    18.47     0.34      8.03 
 Bq                    18.47     0.34      8.23 
 Bq                    18.47     0.34      8.43 
 Bq                    18.47     0.34      8.63 
 Bq                    18.47     0.34      8.83 
 Bq                    18.47     0.34      9.03 
 Bq                    18.47     0.34      9.23 
 Bq                    18.47     0.34      9.43 
 Bq                    18.47     0.34      9.63 
 Bq                    18.47     0.34      9.83 
 Bq                    18.47     0.34      10.03 
 Bq                    18.47     0.34      10.23 
 Bq                    18.47     0.34      10.43 
 Bq                    18.47     0.34      10.63 
 Bq                    18.47     0.34      10.83 
 Bq                    18.47     0.34      11.03 
 Bq                    18.47     0.34      11.23 
 Bq                    18.47     0.34      11.43 
 Bq                    18.47     0.34      11.63 
 Bq                    18.47     0.34      11.83 
 Bq                    18.47     0.34      12.03 
 Bq                    18.47     0.34      12.23 
 Bq                    18.47     0.34      12.43 
 Bq                    18.47     0.34      12.63 
 Bq                    18.47     0.34      12.83 
 Bq                    18.47     0.34      13.03 
 Bq                    18.47     0.34      13.23 
 Bq                    18.47     0.34      13.43 
 Bq                    18.47     0.34      13.63 
 Bq                    18.47     0.34      13.83 
 Bq                    18.47     0.34      14.03 
 Bq                    18.47     0.34      14.23 
 Bq                    18.47     0.34      14.43 
 Bq                    18.47     0.34      14.63 
 Bq                    18.47     0.34      14.83 
 Bq                    18.47     0.34      15.03 
 Bq                    18.47     0.34      15.23 
 Bq                    18.47     0.34      15.43 
 Bq                    18.47     0.34      15.63 
 Bq                    18.47     0.34      15.83 
 Bq                    18.47     0.34      16.03 
 Bq                    18.47     0.34      16.23 
 Bq                    18.47     0.34      16.43 
 Bq                    18.47     0.34      16.63 
 Bq                    18.47     0.34      16.83 
 Bq                    18.47     0.34      17.03 
 Bq                    18.47     0.34      17.23 
 Bq                    18.47     0.34      17.43 
 Bq                    18.47     0.34      17.63 
 Bq                    18.47     0.34      17.83 
 Bq                    18.47     0.34      18.03 
 Bq                    18.47     0.34      18.23 
 Bq                    18.47     0.34      18.43 
 Bq                    18.47     0.34      18.63 
 Bq                    18.47     0.34      18.83 
 Bq                    18.47     0.34      19.03 
 Bq                    18.47     0.34      19.23 
 Bq                    18.47     0.34      19.43 
 Bq                    18.47     0.34      19.63 
 Bq                    18.47     0.34      19.83 
 Bq                    18.47     0.34      20.03 
 Bq                    18.47     0.34      20.23 
 Bq                    18.47     0.34      20.43 
 Bq                    18.47     0.34      20.63 
 Bq                    18.47     0.34      20.83 
 Bq                    18.47     0.34      21.03 
 Bq                    18.47     0.34      21.23 
 Bq                    18.47     0.34      21.43 
 Bq                    18.47     0.54      7.23 
 Bq                    18.47     0.54      7.43 
 Bq                    18.47     0.54      7.63 
 Bq                    18.47     0.54      7.83 
 Bq                    18.47     0.54      8.03 
 Bq                    18.47     0.54      8.23 
 Bq                    18.47     0.54      8.43 
 Bq                    18.47     0.54      8.63 
 Bq                    18.47     0.54      8.83 
 Bq                    18.47     0.54      9.03 
 Bq                    18.47     0.54      9.23 
 Bq                    18.47     0.54      9.43 
 Bq                    18.47     0.54      9.63 
 Bq                    18.47     0.54      9.83 
 Bq                    18.47     0.54      10.03 
 Bq                    18.47     0.54      10.23 
 Bq                    18.47     0.54      10.43 
 Bq                    18.47     0.54      10.63 
 Bq                    18.47     0.54      10.83 
 Bq                    18.47     0.54      11.03 
 Bq                    18.47     0.54      11.23 
 Bq                    18.47     0.54      11.43 
 Bq                    18.47     0.54      11.63 
 Bq                    18.47     0.54      11.83 
 Bq                    18.47     0.54      12.03 
 Bq                    18.47     0.54      12.23 
 Bq                    18.47     0.54      12.43 
 Bq                    18.47     0.54      12.63 
 Bq                    18.47     0.54      12.83 
 Bq                    18.47     0.54      13.03 
 Bq                    18.47     0.54      13.23 
 Bq                    18.47     0.54      13.43 
 Bq                    18.47     0.54      13.63 
 Bq                    18.47     0.54      13.83 
 Bq                    18.47     0.54      14.03 
 Bq                    18.47     0.54      14.23 
 Bq                    18.47     0.54      14.43 
 Bq                    18.47     0.54      14.63 
 Bq                    18.47     0.54      14.83 
 Bq                    18.47     0.54      15.03 
 Bq                    18.47     0.54      15.23 
 Bq                    18.47     0.54      15.43 
 Bq                    18.47     0.54      15.63 
 Bq                    18.47     0.54      15.83 
 Bq                    18.47     0.54      16.03 
 Bq                    18.47     0.54      16.23 
 Bq                    18.47     0.54      16.43 
 Bq                    18.47     0.54      16.63 
 Bq                    18.47     0.54      16.83 
 Bq                    18.47     0.54      17.03 
 Bq                    18.47     0.54      17.23 
 Bq                    18.47     0.54      17.43 
 Bq                    18.47     0.54      17.63 
 Bq                    18.47     0.54      17.83 
 Bq                    18.47     0.54      18.03 
 Bq                    18.47     0.54      18.23 
 Bq                    18.47     0.54      18.43 
 Bq                    18.47     0.54      18.63 
 Bq                    18.47     0.54      18.83 
 Bq                    18.47     0.54      19.03 
 Bq                    18.47     0.54      19.23 
 Bq                    18.47     0.54      19.43 
 Bq                    18.47     0.54      19.63 
 Bq                    18.47     0.54      19.83 
 Bq                    18.47     0.54      20.03 
 Bq                    18.47     0.54      20.23 
 Bq                    18.47     0.54      20.43 
 Bq                    18.47     0.54      20.63 
 Bq                    18.47     0.54      20.83 
 Bq                    18.47     0.54      21.03 
 Bq                    18.47     0.54      21.23 
 Bq                    18.47     0.54      21.43 
 Bq                    18.47     0.74      7.23 
 Bq                    18.47     0.74      7.43 
 Bq                    18.47     0.74      7.63 
 Bq                    18.47     0.74      7.83 
 Bq                    18.47     0.74      8.03 
 Bq                    18.47     0.74      8.23 
 Bq                    18.47     0.74      8.43 
 Bq                    18.47     0.74      8.63 
 Bq                    18.47     0.74      8.83 
 Bq                    18.47     0.74      9.03 
 Bq                    18.47     0.74      9.23 
 Bq                    18.47     0.74      9.43 
 Bq                    18.47     0.74      9.63 
 Bq                    18.47     0.74      9.83 
 Bq                    18.47     0.74      10.03 
 Bq                    18.47     0.74      10.23 
 Bq                    18.47     0.74      10.43 
 Bq                    18.47     0.74      10.63 
 Bq                    18.47     0.74      10.83 
 Bq                    18.47     0.74      11.03 
 Bq                    18.47     0.74      11.23 
 Bq                    18.47     0.74      11.43 
 Bq                    18.47     0.74      11.63 
 Bq                    18.47     0.74      11.83 
 Bq                    18.47     0.74      12.03 
 Bq                    18.47     0.74      12.23 
 Bq                    18.47     0.74      12.43 
 Bq                    18.47     0.74      12.63 
 Bq                    18.47     0.74      12.83 
 Bq                    18.47     0.74      13.03 
 Bq                    18.47     0.74      13.23 
 Bq                    18.47     0.74      13.43 
 Bq                    18.47     0.74      13.63 
 Bq                    18.47     0.74      13.83 
 Bq                    18.47     0.74      14.03 
 Bq                    18.47     0.74      14.23 
 Bq                    18.47     0.74      14.43 
 Bq                    18.47     0.74      14.63 
 Bq                    18.47     0.74      14.83 
 Bq                    18.47     0.74      15.03 
 Bq                    18.47     0.74      15.23 
 Bq                    18.47     0.74      15.43 
 Bq                    18.47     0.74      15.63 
 Bq                    18.47     0.74      15.83 
 Bq                    18.47     0.74      16.03 
 Bq                    18.47     0.74      16.23 
 Bq                    18.47     0.74      16.43 
 Bq                    18.47     0.74      16.63 
 Bq                    18.47     0.74      16.83 
 Bq                    18.47     0.74      17.03 
 Bq                    18.47     0.74      17.23 
 Bq                    18.47     0.74      17.43 
 Bq                    18.47     0.74      17.63 
 Bq                    18.47     0.74      17.83 
 Bq                    18.47     0.74      18.03 
 Bq                    18.47     0.74      18.23 
 Bq                    18.47     0.74      18.43 
 Bq                    18.47     0.74      18.63 
 Bq                    18.47     0.74      18.83 
 Bq                    18.47     0.74      19.03 
 Bq                    18.47     0.74      19.23 
 Bq                    18.47     0.74      19.43 
 Bq                    18.47     0.74      19.63 
 Bq                    18.47     0.74      19.83 
 Bq                    18.47     0.74      20.03 
 Bq                    18.47     0.74      20.23 
 Bq                    18.47     0.74      20.43 
 Bq                    18.47     0.74      20.63 
 Bq                    18.47     0.74      20.83 
 Bq                    18.47     0.74      21.03 
 Bq                    18.47     0.74      21.23 
 Bq                    18.47     0.74      21.43 
 Bq                    18.47     0.94      7.23 
 Bq                    18.47     0.94      7.43 
 Bq                    18.47     0.94      7.63 
 Bq                    18.47     0.94      7.83 
 Bq                    18.47     0.94      8.03 
 Bq                    18.47     0.94      8.23 
 Bq                    18.47     0.94      8.43 
 Bq                    18.47     0.94      8.63 
 Bq                    18.47     0.94      8.83 
 Bq                    18.47     0.94      9.03 
 Bq                    18.47     0.94      9.23 
 Bq                    18.47     0.94      9.43 
 Bq                    18.47     0.94      9.63 
 Bq                    18.47     0.94      9.83 
 Bq                    18.47     0.94      10.03 
 Bq                    18.47     0.94      10.23 
 Bq                    18.47     0.94      10.43 
 Bq                    18.47     0.94      10.63 
 Bq                    18.47     0.94      10.83 
 Bq                    18.47     0.94      11.03 
 Bq                    18.47     0.94      11.23 
 Bq                    18.47     0.94      11.43 
 Bq                    18.47     0.94      11.63 
 Bq                    18.47     0.94      11.83 
 Bq                    18.47     0.94      12.03 
 Bq                    18.47     0.94      12.23 
 Bq                    18.47     0.94      12.43 
 Bq                    18.47     0.94      12.63 
 Bq                    18.47     0.94      12.83 
 Bq                    18.47     0.94      13.03 
 Bq                    18.47     0.94      13.23 
 Bq                    18.47     0.94      13.43 
 Bq                    18.47     0.94      13.63 
 Bq                    18.47     0.94      13.83 
 Bq                    18.47     0.94      14.03 
 Bq                    18.47     0.94      14.23 
 Bq                    18.47     0.94      14.43 
 Bq                    18.47     0.94      14.63 
 Bq                    18.47     0.94      14.83 
 Bq                    18.47     0.94      15.03 
 Bq                    18.47     0.94      15.23 
 Bq                    18.47     0.94      15.43 
 Bq                    18.47     0.94      15.63 
 Bq                    18.47     0.94      15.83 
 Bq                    18.47     0.94      16.03 
 Bq                    18.47     0.94      16.23 
 Bq                    18.47     0.94      16.43 
 Bq                    18.47     0.94      16.63 
 Bq                    18.47     0.94      16.83 
 Bq                    18.47     0.94      17.03 
 Bq                    18.47     0.94      17.23 
 Bq                    18.47     0.94      17.43 
 Bq                    18.47     0.94      17.63 
 Bq                    18.47     0.94      17.83 
 Bq                    18.47     0.94      18.03 
 Bq                    18.47     0.94      18.23 
 Bq                    18.47     0.94      18.43 
 Bq                    18.47     0.94      18.63 
 Bq                    18.47     0.94      18.83 
 Bq                    18.47     0.94      19.03 
 Bq                    18.47     0.94      19.23 
 Bq                    18.47     0.94      19.43 
 Bq                    18.47     0.94      19.63 
 Bq                    18.47     0.94      19.83 
 Bq                    18.47     0.94      20.03 
 Bq                    18.47     0.94      20.23 
 Bq                    18.47     0.94      20.43 
 Bq                    18.47     0.94      20.63 
 Bq                    18.47     0.94      20.83 
 Bq                    18.47     0.94      21.03 
 Bq                    18.47     0.94      21.23 
 Bq                    18.47     0.94      21.43 
 Bq                    18.47     1.14      7.23 
 Bq                    18.47     1.14      7.43 
 Bq                    18.47     1.14      7.63 
 Bq                    18.47     1.14      7.83 
 Bq                    18.47     1.14      8.03 
 Bq                    18.47     1.14      8.23 
 Bq                    18.47     1.14      8.43 
 Bq                    18.47     1.14      8.63 
 Bq                    18.47     1.14      8.83 
 Bq                    18.47     1.14      9.03 
 Bq                    18.47     1.14      9.23 
 Bq                    18.47     1.14      9.43 
 Bq                    18.47     1.14      9.63 
 Bq                    18.47     1.14      9.83 
 Bq                    18.47     1.14      10.03 
 Bq                    18.47     1.14      10.23 
 Bq                    18.47     1.14      10.43 
 Bq                    18.47     1.14      10.63 
 Bq                    18.47     1.14      10.83 
 Bq                    18.47     1.14      11.03 
 Bq                    18.47     1.14      11.23 
 Bq                    18.47     1.14      11.43 
 Bq                    18.47     1.14      11.63 
 Bq                    18.47     1.14      11.83 
 Bq                    18.47     1.14      12.03 
 Bq                    18.47     1.14      12.23 
 Bq                    18.47     1.14      12.43 
 Bq                    18.47     1.14      12.63 
 Bq                    18.47     1.14      12.83 
 Bq                    18.47     1.14      13.03 
 Bq                    18.47     1.14      13.23 
 Bq                    18.47     1.14      13.43 
 Bq                    18.47     1.14      13.63 
 Bq                    18.47     1.14      13.83 
 Bq                    18.47     1.14      14.03 
 Bq                    18.47     1.14      14.23 
 Bq                    18.47     1.14      14.43 
 Bq                    18.47     1.14      14.63 
 Bq                    18.47     1.14      14.83 
 Bq                    18.47     1.14      15.03 
 Bq                    18.47     1.14      15.23 
 Bq                    18.47     1.14      15.43 
 Bq                    18.47     1.14      15.63 
 Bq                    18.47     1.14      15.83 
 Bq                    18.47     1.14      16.03 
 Bq                    18.47     1.14      16.23 
 Bq                    18.47     1.14      16.43 
 Bq                    18.47     1.14      16.63 
 Bq                    18.47     1.14      16.83 
 Bq                    18.47     1.14      17.03 
 Bq                    18.47     1.14      17.23 
 Bq                    18.47     1.14      17.43 
 Bq                    18.47     1.14      17.63 
 Bq                    18.47     1.14      17.83 
 Bq                    18.47     1.14      18.03 
 Bq                    18.47     1.14      18.23 
 Bq                    18.47     1.14      18.43 
 Bq                    18.47     1.14      18.63 
 Bq                    18.47     1.14      18.83 
 Bq                    18.47     1.14      19.03 
 Bq                    18.47     1.14      19.23 
 Bq                    18.47     1.14      19.43 
 Bq                    18.47     1.14      19.63 
 Bq                    18.47     1.14      19.83 
 Bq                    18.47     1.14      20.03 
 Bq                    18.47     1.14      20.23 
 Bq                    18.47     1.14      20.43 
 Bq                    18.47     1.14      20.63 
 Bq                    18.47     1.14      20.83 
 Bq                    18.47     1.14      21.03 
 Bq                    18.47     1.14      21.23 
 Bq                    18.47     1.14      21.43 
 Bq                    18.47     1.34      7.23 
 Bq                    18.47     1.34      7.43 
 Bq                    18.47     1.34      7.63 
 Bq                    18.47     1.34      7.83 
 Bq                    18.47     1.34      8.03 
 Bq                    18.47     1.34      8.23 
 Bq                    18.47     1.34      8.43 
 Bq                    18.47     1.34      8.63 
 Bq                    18.47     1.34      8.83 
 Bq                    18.47     1.34      9.03 
 Bq                    18.47     1.34      9.23 
 Bq                    18.47     1.34      9.43 
 Bq                    18.47     1.34      9.63 
 Bq                    18.47     1.34      9.83 
 Bq                    18.47     1.34      10.03 
 Bq                    18.47     1.34      10.23 
 Bq                    18.47     1.34      10.43 
 Bq                    18.47     1.34      10.63 
 Bq                    18.47     1.34      10.83 
 Bq                    18.47     1.34      11.03 
[...]
 7,12.74,14.63\Bq,0,18.47,12.74,14.83\Bq,0,18.47,12.74,15.03\Bq,0,18.47
 ,12.74,15.23\Bq,0,18.47,12.74,15.43\Bq,0,18.47,12.74,15.63\Bq,0,18.47,
 12.74,15.83\Bq,0,18.47,12.74,16.03\Bq,0,18.47,12.74,16.23\Bq,0,18.47,1
 2.74,16.43\Bq,0,18.47,12.74,16.63\Bq,0,18.47,12.74,16.83\Bq,0,18.47,12
 .74,17.03\Bq,0,18.47,12.74,17.23\Bq,0,18.47,12.74,17.43\Bq,0,18.47,12.
 74,17.63\Bq,0,18.47,12.74,17.83\Bq,0,18.47,12.74,18.03\Bq,0,18.47,12.7
 4,18.23\Bq,0,18.47,12.74,18.43\Bq,0,18.47,12.74,18.63\Bq,0,18.47,12.74
 ,18.83\Bq,0,18.47,12.74,19.03\Bq,0,18.47,12.74,19.23\Bq,0,18.47,12.74,
 19.43\Bq,0,18.47,12.74,19.63\Bq,0,18.47,12.74,19.83\Bq,0,18.47,12.74,2
 0.03\Bq,0,18.47,12.74,20.23\Bq,0,18.47,12.74,20.43\Bq,0,18.47,12.74,20
 .63\Bq,0,18.47,12.74,20.83\Bq,0,18.47,12.74,21.03\Bq,0,18.47,12.74,21.
 23\Bq,0,18.47,12.74,21.43\Bq,0,18.47,12.94,7.23\Bq,0,18.47,12.94,7.43\
 Bq,0,18.47,12.94,7.63\Bq,0,18.47,12.94,7.83\Bq,0,18.47,12.94,8.03\Bq,0
 ,18.47,12.94,8.23\Bq,0,18.47,12.94,8.43\Bq,0,18.47,12.94,8.63\Bq,0,18.
 47,12.94,8.83\Bq,0,18.47,12.94,9.03\Bq,0,18.47,12.94,9.23\Bq,0,18.47,1
 2.94,9.43\Bq,0,18.47,12.94,9.63\Bq,0,18.47,12.94,9.83\Bq,0,18.47,12.94
 ,10.03\Bq,0,18.47,12.94,10.23\Bq,0,18.47,12.94,10.43\Bq,0,18.47,12.94,
 10.63\Bq,0,18.47,12.94,10.83\Bq,0,18.47,12.94,11.03\Bq,0,18.47,12.94,1
 1.23\Bq,0,18.47,12.94,11.43\Bq,0,18.47,12.94,11.63\Bq,0,18.47,12.94,11
 .83\Bq,0,18.47,12.94,12.03\Bq,0,18.47,12.94,12.23\Bq,0,18.47,12.94,12.
 43\Bq,0,18.47,12.94,12.63\Bq,0,18.47,12.94,12.83\Bq,0,18.47,12.94,13.0
 3\Bq,0,18.47,12.94,13.23\Bq,0,18.47,12.94,13.43\Bq,0,18.47,12.94,13.63
 \Bq,0,18.47,12.94,13.83\Bq,0,18.47,12.94,14.03\Bq,0,18.47,12.94,14.23\
 Bq,0,18.47,12.94,14.43\Bq,0,18.47,12.94,14.63\Bq,0,18.47,12.94,14.83\B
 q,0,18.47,12.94,15.03\Bq,0,18.47,12.94,15.23\Bq,0,18.47,12.94,15.43\Bq
 ,0,18.47,12.94,15.63\Bq,0,18.47,12.94,15.83\Bq,0,18.47,12.94,16.03\Bq,
 0,18.47,12.94,16.23\Bq,0,18.47,12.94,16.43\Bq,0,18.47,12.94,16.63\Bq,0
 ,18.47,12.94,16.83\Bq,0,18.47,12.94,17.03\Bq,0,18.47,12.94,17.23\Bq,0,
 18.47,12.94,17.43\Bq,0,18.47,12.94,17.63\Bq,0,18.47,12.94,17.83\Bq,0,1
 8.47,12.94,18.03\Bq,0,18.47,12.94,18.23\Bq,0,18.47,12.94,18.43\Bq,0,18
 .47,12.94,18.63\Bq,0,18.47,12.94,18.83\Bq,0,18.47,12.94,19.03\Bq,0,18.
 47,12.94,19.23\Bq,0,18.47,12.94,19.43\Bq,0,18.47,12.94,19.63\Bq,0,18.4
 7,12.94,19.83\Bq,0,18.47,12.94,20.03\Bq,0,18.47,12.94,20.23\Bq,0,18.47
 ,12.94,20.43\Bq,0,18.47,12.94,20.63\Bq,0,18.47,12.94,20.83\Bq,0,18.47,
 12.94,21.03\Bq,0,18.47,12.94,21.23\Bq,0,18.47,12.94,21.43\Bq,0,18.47,1
 3.14,7.23\Bq,0,18.47,13.14,7.43\Bq,0,18.47,13.14,7.63\Bq,0,18.47,13.14
 ,7.83\Bq,0,18.47,13.14,8.03\Bq,0,18.47,13.14,8.23\Bq,0,18.47,13.14,8.4
 3\Bq,0,18.47,13.14,8.63\Bq,0,18.47,13.14,8.83\Bq,0,18.47,13.14,9.03\Bq
 ,0,18.47,13.14,9.23\Bq,0,18.47,13.14,9.43\Bq,0,18.47,13.14,9.63\Bq,0,1
 8.47,13.14,9.83\Bq,0,18.47,13.14,10.03\Bq,0,18.47,13.14,10.23\Bq,0,18.
 47,13.14,10.43\Bq,0,18.47,13.14,10.63\Bq,0,18.47,13.14,10.83\Bq,0,18.4
 7,13.14,11.03\Bq,0,18.47,13.14,11.23\Bq,0,18.47,13.14,11.43\Bq,0,18.47
 ,13.14,11.63\Bq,0,18.47,13.14,11.83\Bq,0,18.47,13.14,12.03\Bq,0,18.47,
 13.14,12.23\Bq,0,18.47,13.14,12.43\Bq,0,18.47,13.14,12.63\Bq,0,18.47,1
 3.14,12.83\Bq,0,18.47,13.14,13.03\Bq,0,18.47,13.14,13.23\Bq,0,18.47,13
 .14,13.43\Bq,0,18.47,13.14,13.63\Bq,0,18.47,13.14,13.83\Bq,0,18.47,13.
 14,14.03\Bq,0,18.47,13.14,14.23\Bq,0,18.47,13.14,14.43\Bq,0,18.47,13.1
 4,14.63\Bq,0,18.47,13.14,14.83\Bq,0,18.47,13.14,15.03\Bq,0,18.47,13.14
 ,15.23\Bq,0,18.47,13.14,15.43\Bq,0,18.47,13.14,15.63\Bq,0,18.47,13.14,
 15.83\Bq,0,18.47,13.14,16.03\Bq,0,18.47,13.14,16.23\Bq,0,18.47,13.14,1
 6.43\Bq,0,18.47,13.14,16.63\Bq,0,18.47,13.14,16.83\Bq,0,18.47,13.14,17
 .03\Bq,0,18.47,13.14,17.23\Bq,0,18.47,13.14,17.43\Bq,0,18.47,13.14,17.
 63\Bq,0,18.47,13.14,17.83\Bq,0,18.47,13.14,18.03\Bq,0,18.47,13.14,18.2
 3\Bq,0,18.47,13.14,18.43\Bq,0,18.47,13.14,18.63\Bq,0,18.47,13.14,18.83
 \Bq,0,18.47,13.14,19.03\Bq,0,18.47,13.14,19.23\Bq,0,18.47,13.14,19.43\
 Bq,0,18.47,13.14,19.63\Bq,0,18.47,13.14,19.83\Bq,0,18.47,13.14,20.03\B
 q,0,18.47,13.14,20.23\Bq,0,18.47,13.14,20.43\Bq,0,18.47,13.14,20.63\Bq
 ,0,18.47,13.14,20.83\Bq,0,18.47,13.14,21.03\Bq,0,18.47,13.14,21.23\Bq,
 0,18.47,13.14,21.43\Bq,0,18.47,13.34,7.23\Bq,0,18.47,13.34,7.43\Bq,0,1
 8.47,13.34,7.63\Bq,0,18.47,13.34,7.83\Bq,0,18.47,13.34,8.03\Bq,0,18.47
 ,13.34,8.23\Bq,0,18.47,13.34,8.43\Bq,0,18.47,13.34,8.63\Bq,0,18.47,13.
 34,8.83\Bq,0,18.47,13.34,9.03\Bq,0,18.47,13.34,9.23\Bq,0,18.47,13.34,9
 .43\Bq,0,18.47,13.34,9.63\Bq,0,18.47,13.34,9.83\Bq,0,18.47,13.34,10.03
 \Bq,0,18.47,13.34,10.23\Bq,0,18.47,13.34,10.43\Bq,0,18.47,13.34,10.63\
 Bq,0,18.47,13.34,10.83\Bq,0,18.47,13.34,11.03\Bq,0,18.47,13.34,11.23\B
 q,0,18.47,13.34,11.43\Bq,0,18.47,13.34,11.63\Bq,0,18.47,13.34,11.83\Bq
 ,0,18.47,13.34,12.03\Bq,0,18.47,13.34,12.23\Bq,0,18.47,13.34,12.43\Bq,
 0,18.47,13.34,12.63\Bq,0,18.47,13.34,12.83\Bq,0,18.47,13.34,13.03\Bq,0
 ,18.47,13.34,13.23\Bq,0,18.47,13.34,13.43\Bq,0,18.47,13.34,13.63\Bq,0,
 18.47,13.34,13.83\Bq,0,18.47,13.34,14.03\Bq,0,18.47,13.34,14.23\Bq,0,1
 8.47,13.34,14.43\Bq,0,18.47,13.34,14.63\Bq,0,18.47,13.34,14.83\Bq,0,18
 .47,13.34,15.03\Bq,0,18.47,13.34,15.23\Bq,0,18.47,13.34,15.43\Bq,0,18.
 47,13.34,15.63\Bq,0,18.47,13.34,15.83\Bq,0,18.47,13.34,16.03\Bq,0,18.4
 7,13.34,16.23\Bq,0,18.47,13.34,16.43\Bq,0,18.47,13.34,16.63\Bq,0,18.47
 ,13.34,16.83\Bq,0,18.47,13.34,17.03\Bq,0,18.47,13.34,17.23\Bq,0,18.47,
 13.34,17.43\Bq,0,18.47,13.34,17.63\Bq,0,18.47,13.34,17.83\Bq,0,18.47,1
 3.34,18.03\Bq,0,18.47,13.34,18.23\Bq,0,18.47,13.34,18.43\Bq,0,18.47,13
 .34,18.63\Bq,0,18.47,13.34,18.83\Bq,0,18.47,13.34,19.03\Bq,0,18.47,13.
 34,19.23\Bq,0,18.47,13.34,19.43\Bq,0,18.47,13.34,19.63\Bq,0,18.47,13.3
 4,19.83\Bq,0,18.47,13.34,20.03\Bq,0,18.47,13.34,20.23\Bq,0,18.47,13.34
 ,20.43\Bq,0,18.47,13.34,20.63\Bq,0,18.47,13.34,20.83\Bq,0,18.47,13.34,
 21.03\Bq,0,18.47,13.34,21.23\Bq,0,18.47,13.34,21.43\Bq,0,18.47,13.54,7
 .23\Bq,0,18.47,13.54,7.43\Bq,0,18.47,13.54,7.63\Bq,0,18.47,13.54,7.83\
 Bq,0,18.47,13.54,8.03\Bq,0,18.47,13.54,8.23\Bq,0,18.47,13.54,8.43\Bq,0
 ,18.47,13.54,8.63\Bq,0,18.47,13.54,8.83\Bq,0,18.47,13.54,9.03\Bq,0,18.
 47,13.54,9.23\Bq,0,18.47,13.54,9.43\Bq,0,18.47,13.54,9.63\Bq,0,18.47,1
 3.54,9.83\Bq,0,18.47,13.54,10.03\Bq,0,18.47,13.54,10.23\Bq,0,18.47,13.
 54,10.43\Bq,0,18.47,13.54,10.63\Bq,0,18.47,13.54,10.83\Bq,0,18.47,13.5
 4,11.03\Bq,0,18.47,13.54,11.23\Bq,0,18.47,13.54,11.43\Bq,0,18.47,13.54
 ,11.63\Bq,0,18.47,13.54,11.83\Bq,0,18.47,13.54,12.03\Bq,0,18.47,13.54,
 12.23\Bq,0,18.47,13.54,12.43\Bq,0,18.47,13.54,12.63\Bq,0,18.47,13.54,1
 2.83\Bq,0,18.47,13.54,13.03\Bq,0,18.47,13.54,13.23\Bq,0,18.47,13.54,13
 .43\Bq,0,18.47,13.54,13.63\Bq,0,18.47,13.54,13.83\Bq,0,18.47,13.54,14.
 03\Bq,0,18.47,13.54,14.23\Bq,0,18.47,13.54,14.43\Bq,0,18.47,13.54,14.6
 3\Bq,0,18.47,13.54,14.83\Bq,0,18.47,13.54,15.03\Bq,0,18.47,13.54,15.23
 \Bq,0,18.47,13.54,15.43\Bq,0,18.47,13.54,15.63\Bq,0,18.47,13.54,15.83\
 Bq,0,18.47,13.54,16.03\Bq,0,18.47,13.54,16.23\Bq,0,18.47,13.54,16.43\B
 q,0,18.47,13.54,16.63\Bq,0,18.47,13.54,16.83\Bq,0,18.47,13.54,17.03\Bq
 ,0,18.47,13.54,17.23\Bq,0,18.47,13.54,17.43\Bq,0,18.47,13.54,17.63\Bq,
 0,18.47,13.54,17.83\Bq,0,18.47,13.54,18.03\Bq,0,18.47,13.54,18.23\Bq,0
 ,18.47,13.54,18.43\Bq,0,18.47,13.54,18.63\Bq,0,18.47,13.54,18.83\Bq,0,
 18.47,13.54,19.03\Bq,0,18.47,13.54,19.23\Bq,0,18.47,13.54,19.43\Bq,0,1
 8.47,13.54,19.63\Bq,0,18.47,13.54,19.83\Bq,0,18.47,13.54,20.03\Bq,0,18
 .47,13.54,20.23\Bq,0,18.47,13.54,20.43\Bq,0,18.47,13.54,20.63\Bq,0,18.
 47,13.54,20.83\Bq,0,18.47,13.54,21.03\Bq,0,18.47,13.54,21.23\Bq,0,18.4
 7,13.54,21.43\Bq,0,18.47,13.74,7.23\Bq,0,18.47,13.74,7.43\Bq,0,18.47,1
 3.74,7.63\Bq,0,18.47,13.74,7.83\Bq,0,18.47,13.74,8.03\Bq,0,18.47,13.74
 ,8.23\Bq,0,18.47,13.74,8.43\Bq,0,18.47,13.74,8.63\Bq,0,18.47,13.74,8.8
 3\Bq,0,18.47,13.74,9.03\Bq,0,18.47,13.74,9.23\Bq,0,18.47,13.74,9.43\Bq
 ,0,18.47,13.74,9.63\Bq,0,18.47,13.74,9.83\Bq,0,18.47,13.74,10.03\Bq,0,
 18.47,13.74,10.23\Bq,0,18.47,13.74,10.43\Bq,0,18.47,13.74,10.63\Bq,0,1
 8.47,13.74,10.83\Bq,0,18.47,13.74,11.03\Bq,0,18.47,13.74,11.23\Bq,0,18
 .47,13.74,11.43\Bq,0,18.47,13.74,11.63\Bq,0,18.47,13.74,11.83\Bq,0,18.
 47,13.74,12.03\Bq,0,18.47,13.74,12.23\Bq,0,18.47,13.74,12.43\Bq,0,18.4
 7,13.74,12.63\Bq,0,18.47,13.74,12.83\Bq,0,18.47,13.74,13.03\Bq,0,18.47
 ,13.74,13.23\Bq,0,18.47,13.74,13.43\Bq,0,18.47,13.74,13.63\Bq,0,18.47,
 13.74,13.83\Bq,0,18.47,13.74,14.03\Bq,0,18.47,13.74,14.23\Bq,0,18.47,1
 3.74,14.43\Bq,0,18.47,13.74,14.63\Bq,0,18.47,13.74,14.83\Bq,0,18.47,13
 .74,15.03\Bq,0,18.47,13.74,15.23\Bq,0,18.47,13.74,15.43\Bq,0,18.47,13.
 74,15.63\Bq,0,18.47,13.74,15.83\Bq,0,18.47,13.74,16.03\Bq,0,18.47,13.7
 4,16.23\Bq,0,18.47,13.74,16.43\Bq,0,18.47,13.74,16.63\Bq,0,18.47,13.74
 ,16.83\Bq,0,18.47,13.74,17.03\Bq,0,18.47,13.74,17.23\Bq,0,18.47,13.74,
 17.43\Bq,0,18.47,13.74,17.63\Bq,0,18.47,13.74,17.83\Bq,0,18.47,13.74,1
 8.03\Bq,0,18.47,13.74,18.23\Bq,0,18.47,13.74,18.43\Bq,0,18.47,13.74,18
 .63\Bq,0,18.47,13.74,18.83\Bq,0,18.47,13.74,19.03\Bq,0,18.47,13.74,19.
 23\Bq,0,18.47,13.74,19.43\Bq,0,18.47,13.74,19.63\Bq,0,18.47,13.74,19.8
 3\Bq,0,18.47,13.74,20.03\Bq,0,18.47,13.74,20.23\Bq,0,18.47,13.74,20.43
 \Bq,0,18.47,13.74,20.63\Bq,0,18.47,13.74,20.83\Bq,0,18.47,13.74,21.03\
 Bq,0,18.47,13.74,21.23\Bq,0,18.47,13.74,21.43\Bq,0,18.47,13.94,7.23\Bq
 ,0,18.47,13.94,7.43\Bq,0,18.47,13.94,7.63\Bq,0,18.47,13.94,7.83\Bq,0,1
 8.47,13.94,8.03\Bq,0,18.47,13.94,8.23\Bq,0,18.47,13.94,8.43\Bq,0,18.47
 ,13.94,8.63\Bq,0,18.47,13.94,8.83\Bq,0,18.47,13.94,9.03\Bq,0,18.47,13.
 94,9.23\Bq,0,18.47,13.94,9.43\Bq,0,18.47,13.94,9.63\Bq,0,18.47,13.94,9
 .83\Bq,0,18.47,13.94,10.03\Bq,0,18.47,13.94,10.23\Bq,0,18.47,13.94,10.
 43\Bq,0,18.47,13.94,10.63\Bq,0,18.47,13.94,10.83\Bq,0,18.47,13.94,11.0
 3\Bq,0,18.47,13.94,11.23\Bq,0,18.47,13.94,11.43\Bq,0,18.47,13.94,11.63
 \Bq,0,18.47,13.94,11.83\Bq,0,18.47,13.94,12.03\Bq,0,18.47,13.94,12.23\
 Bq,0,18.47,13.94,12.43\Bq,0,18.47,13.94,12.63\Bq,0,18.47,13.94,12.83\B
 q,0,18.47,13.94,13.03\Bq,0,18.47,13.94,13.23\Bq,0,18.47,13.94,13.43\Bq
 ,0,18.47,13.94,13.63\Bq,0,18.47,13.94,13.83\Bq,0,18.47,13.94,14.03\Bq,
 0,18.47,13.94,14.23\Bq,0,18.47,13.94,14.43\Bq,0,18.47,13.94,14.63\Bq,0
 ,18.47,13.94,14.83\Bq,0,18.47,13.94,15.03\Bq,0,18.47,13.94,15.23\Bq,0,
 18.47,13.94,15.43\Bq,0,18.47,13.94,15.63\Bq,0,18.47,13.94,15.83\Bq,0,1
 8.47,13.94,16.03\Bq,0,18.47,13.94,16.23\Bq,0,18.47,13.94,16.43\Bq,0,18
 .47,13.94,16.63\Bq,0,18.47,13.94,16.83\Bq,0,18.47,13.94,17.03\Bq,0,18.
 47,13.94,17.23\Bq,0,18.47,13.94,17.43\Bq,0,18.47,13.94,17.63\Bq,0,18.4
 7,13.94,17.83\Bq,0,18.47,13.94,18.03\Bq,0,18.47,13.94,18.23\Bq,0,18.47
 ,13.94,18.43\Bq,0,18.47,13.94,18.63\Bq,0,18.47,13.94,18.83\Bq,0,18.47,
 13.94,19.03\Bq,0,18.47,13.94,19.23\Bq,0,18.47,13.94,19.43\Bq,0,18.47,1
 3.94,19.63\Bq,0,18.47,13.94,19.83\Bq,0,18.47,13.94,20.03\Bq,0,18.47,13
 .94,20.23\Bq,0,18.47,13.94,20.43\Bq,0,18.47,13.94,20.63\Bq,0,18.47,13.
 94,20.83\Bq,0,18.47,13.94,21.03\Bq,0,18.47,13.94,21.23\Bq,0,18.47,13.9
 4,21.43\Bq,0,18.47,14.14,7.23\Bq,0,18.47,14.14,7.43\Bq,0,18.47,14.14,7
 .63\Bq,0,18.47,14.14,7.83\Bq,0,18.47,14.14,8.03\Bq,0,18.47,14.14,8.23\
 Bq,0,18.47,14.14,8.43\Bq,0,18.47,14.14,8.63\Bq,0,18.47,14.14,8.83\Bq,0
 ,18.47,14.14,9.03\Bq,0,18.47,14.14,9.23\Bq,0,18.47,14.14,9.43\Bq,0,18.
 47,14.14,9.63\Bq,0,18.47,14.14,9.83\Bq,0,18.47,14.14,10.03\Bq,0,18.47,
 14.14,10.23\Bq,0,18.47,14.14,10.43\Bq,0,18.47,14.14,10.63\Bq,0,18.47,1
 4.14,10.83\Bq,0,18.47,14.14,11.03\Bq,0,18.47,14.14,11.23\Bq,0,18.47,14
 .14,11.43\Bq,0,18.47,14.14,11.63\Bq,0,18.47,14.14,11.83\Bq,0,18.47,14.
 14,12.03\Bq,0,18.47,14.14,12.23\Bq,0,18.47,14.14,12.43\Bq,0,18.47,14.1
 4,12.63\Bq,0,18.47,14.14,12.83\Bq,0,18.47,14.14,13.03\Bq,0,18.47,14.14
 ,13.23\Bq,0,18.47,14.14,13.43\Bq,0,18.47,14.14,13.63\Bq,0,18.47,14.14,
 13.83\Bq,0,18.47,14.14,14.03\Bq,0,18.47,14.14,14.23\Bq,0,18.47,14.14,1
 4.43\Bq,0,18.47,14.14,14.63\Bq,0,18.47,14.14,14.83\Bq,0,18.47,14.14,15
 .03\Bq,0,18.47,14.14,15.23\Bq,0,18.47,14.14,15.43\Bq,0,18.47,14.14,15.
 63\Bq,0,18.47,14.14,15.83\Bq,0,18.47,14.14,16.03\Bq,0,18.47,14.14,16.2
 3\Bq,0,18.47,14.14,16.43\Bq,0,18.47,14.14,16.63\Bq,0,18.47,14.14,16.83
 \Bq,0,18.47,14.14,17.03\Bq,0,18.47,14.14,17.23\Bq,0,18.47,14.14,17.43\
 Bq,0,18.47,14.14,17.63\Bq,0,18.47,14.14,17.83\Bq,0,18.47,14.14,18.03\B
 q,0,18.47,14.14,18.23\Bq,0,18.47,14.14,18.43\Bq,0,18.47,14.14,18.63\Bq
 ,0,18.47,14.14,18.83\Bq,0,18.47,14.14,19.03\Bq,0,18.47,14.14,19.23\Bq,
 0,18.47,14.14,19.43\Bq,0,18.47,14.14,19.63\Bq,0,18.47,14.14,19.83\Bq,0
 ,18.47,14.14,20.03\Bq,0,18.47,14.14,20.23\Bq,0,18.47,14.14,20.43\Bq,0,
 18.47,14.14,20.63\Bq,0,18.47,14.14,20.83\Bq,0,18.47,14.14,21.03\Bq,0,1
 8.47,14.14,21.23\Bq,0,18.47,14.14,21.43\Bq,0,18.47,14.34,7.23\Bq,0,18.
 47,14.34,7.43\Bq,0,18.47,14.34,7.63\Bq,0,18.47,14.34,7.83\Bq,0,18.47,1
 4.34,8.03\Bq,0,18.47,14.34,8.23\Bq,0,18.47,14.34,8.43\Bq,0,18.47,14.34
 ,8.63\Bq,0,18.47,14.34,8.83\Bq,0,18.47,14.34,9.03\Bq,0,18.47,14.34,9.2
 3\Bq,0,18.47,14.34,9.43\Bq,0,18.47,14.34,9.63\Bq,0,18.47,14.34,9.83\Bq
 ,0,18.47,14.34,10.03\Bq,0,18.47,14.34,10.23\Bq,0,18.47,14.34,10.43\Bq,
 0,18.47,14.34,10.63\Bq,0,18.47,14.34,10.83\Bq,0,18.47,14.34,11.03\Bq,0
 ,18.47,14.34,11.23\Bq,0,18.47,14.34,11.43\Bq,0,18.47,14.34,11.63\Bq,0,
 18.47,14.34,11.83\Bq,0,18.47,14.34,12.03\Bq,0,18.47,14.34,12.23\Bq,0,1
 8.47,14.34,12.43\Bq,0,18.47,14.34,12.63\Bq,0,18.47,14.34,12.83\Bq,0,18
 .47,14.34,13.03\Bq,0,18.47,14.34,13.23\Bq,0,18.47,14.34,13.43\Bq,0,18.
 47,14.34,13.63\Bq,0,18.47,14.34,13.83\Bq,0,18.47,14.34,14.03\Bq,0,18.4
 7,14.34,14.23\Bq,0,18.47,14.34,14.43\Bq,0,18.47,14.34,14.63\Bq,0,18.47
 ,14.34,14.83\Bq,0,18.47,14.34,15.03\Bq,0,18.47,14.34,15.23\Bq,0,18.47,
 14.34,15.43\Bq,0,18.47,14.34,15.63\Bq,0,18.47,14.34,15.83\Bq,0,18.47,1
 4.34,16.03\Bq,0,18.47,14.34,16.23\Bq,0,18.47,14.34,16.43\Bq,0,18.47,14
 .34,16.63\Bq,0,18.47,14.34,16.83\Bq,0,18.47,14.34,17.03\Bq,0,18.47,14.
 34,17.23\Bq,0,18.47,14.34,17.43\Bq,0,18.47,14.34,17.63\Bq,0,18.47,14.3
 4,17.83\Bq,0,18.47,14.34,18.03\Bq,0,18.47,14.34,18.23\Bq,0,18.47,14.34
 ,18.43\Bq,0,18.47,14.34,18.63\Bq,0,18.47,14.34,18.83\Bq,0,18.47,14.34,
 19.03\Bq,0,18.47,14.34,19.23\Bq,0,18.47,14.34,19.43\Bq,0,18.47,14.34,1
 9.63\Bq,0,18.47,14.34,19.83\Bq,0,18.47,14.34,20.03\Bq,0,18.47,14.34,20
 .23\Bq,0,18.47,14.34,20.43\Bq,0,18.47,14.34,20.63\Bq,0,18.47,14.34,20.
 83\Bq,0,18.47,14.34,21.03\Bq,0,18.47,14.34,21.23\Bq,0,18.47,14.34,21.4
 3\Bq,0,18.47,14.54,7.23\Bq,0,18.47,14.54,7.43\Bq,0,18.47,14.54,7.63\Bq
 ,0,18.47,14.54,7.83\Bq,0,18.47,14.54,8.03\Bq,0,18.47,14.54,8.23\Bq,0,1
 8.47,14.54,8.43\Bq,0,18.47,14.54,8.63\Bq,0,18.47,14.54,8.83\Bq,0,18.47
 ,14.54,9.03\Bq,0,18.47,14.54,9.23\Bq,0,18.47,14.54,9.43\Bq,0,18.47,14.
 54,9.63\Bq,0,18.47,14.54,9.83\Bq,0,18.47,14.54,10.03\Bq,0,18.47,14.54,
 10.23\Bq,0,18.47,14.54,10.43\Bq,0,18.47,14.54,10.63\Bq,0,18.47,14.54,1
 0.83\Bq,0,18.47,14.54,11.03\Bq,0,18.47,14.54,11.23\Bq,0,18.47,14.54,11
 .43\Bq,0,18.47,14.54,11.63\Bq,0,18.47,14.54,11.83\Bq,0,18.47,14.54,12.
 03\Bq,0,18.47,14.54,12.23\Bq,0,18.47,14.54,12.43\Bq,0,18.47,14.54,12.6
 3\Bq,0,18.47,14.54,12.83\Bq,0,18.47,14.54,13.03\Bq,0,18.47,14.54,13.23
 \Bq,0,18.47,14.54,13.43\Bq,0,18.47,14.54,13.63\Bq,0,18.47,14.54,13.83\
 Bq,0,18.47,14.54,14.03\Bq,0,18.47,14.54,14.23\Bq,0,18.47,14.54,14.43\B
 q,0,18.47,14.54,14.63\Bq,0,18.47,14.54,14.83\Bq,0,18.47,14.54,15.03\Bq
 ,0,18.47,14.54,15.23\Bq,0,18.47,14.54,15.43\Bq,0,18.47,14.54,15.63\Bq,
 0,18.47,14.54,15.83\Bq,0,18.47,14.54,16.03\Bq,0,18.47,14.54,16.23\Bq,0
 ,18.47,14.54,16.43\Bq,0,18.47,14.54,16.63\Bq,0,18.47,14.54,16.83\Bq,0,
 18.47,14.54,17.03\Bq,0,18.47,14.54,17.23\Bq,0,18.47,14.54,17.43\Bq,0,1
 8.47,14.54,17.63\Bq,0,18.47,14.54,17.83\Bq,0,18.47,14.54,18.03\Bq,0,18
 .47,14.54,18.23\Bq,0,18.47,14.54,18.43\Bq,0,18.47,14.54,18.63\Bq,0,18.
 47,14.54,18.83\Bq,0,18.47,14.54,19.03\Bq,0,18.47,14.54,19.23\Bq,0,18.4
 7,14.54,19.43\Bq,0,18.47,14.54,19.63\Bq,0,18.47,14.54,19.83\Bq,0,18.47
 ,14.54,20.03\Bq,0,18.47,14.54,20.23\Bq,0,18.47,14.54,20.43\Bq,0,18.47,
 14.54,20.63\Bq,0,18.47,14.54,20.83\Bq,0,18.47,14.54,21.03\Bq,0,18.47,1
 4.54,21.23\Bq,0,18.47,14.54,21.43\Bq,0,18.47,14.74,7.23\Bq,0,18.47,14.
 74,7.43\Bq,0,18.47,14.74,7.63\Bq,0,18.47,14.74,7.83\Bq,0,18.47,14.74,8
 .03\Bq,0,18.47,14.74,8.23\Bq,0,18.47,14.74,8.43\Bq,0,18.47,14.74,8.63\
 Bq,0,18.47,14.74,8.83\Bq,0,18.47,14.74,9.03\Bq,0,18.47,14.74,9.23\Bq,0
 ,18.47,14.74,9.43\Bq,0,18.47,14.74,9.63\Bq,0,18.47,14.74,9.83\Bq,0,18.
 47,14.74,10.03\Bq,0,18.47,14.74,10.23\Bq,0,18.47,14.74,10.43\Bq,0,18.4
 7,14.74,10.63\Bq,0,18.47,14.74,10.83\Bq,0,18.47,14.74,11.03\Bq,0,18.47
 ,14.74,11.23\Bq,0,18.47,14.74,11.43\Bq,0,18.47,14.74,11.63\Bq,0,18.47,
 14.74,11.83\Bq,0,18.47,14.74,12.03\Bq,0,18.47,14.74,12.23\Bq,0,18.47,1
 4.74,12.43\Bq,0,18.47,14.74,12.63\Bq,0,18.47,14.74,12.83\Bq,0,18.47,14
 .74,13.03\Bq,0,18.47,14.74,13.23\Bq,0,18.47,14.74,13.43\Bq,0,18.47,14.
 74,13.63\Bq,0,18.47,14.74,13.83\Bq,0,18.47,14.74,14.03\Bq,0,18.47,14.7
 4,14.23\Bq,0,18.47,14.74,14.43\Bq,0,18.47,14.74,14.63\Bq,0,18.47,14.74
 ,14.83\Bq,0,18.47,14.74,15.03\Bq,0,18.47,14.74,15.23\Bq,0,18.47,14.74,
 15.43\Bq,0,18.47,14.74,15.63\Bq,0,18.47,14.74,15.83\Bq,0,18.47,14.74,1
 6.03\Bq,0,18.47,14.74,16.23\Bq,0,18.47,14.74,16.43\Bq,0,18.47,14.74,16
 .63\Bq,0,18.47,14.74,16.83\Bq,0,18.47,14.74,17.03\Bq,0,18.47,14.74,17.
 23\Bq,0,18.47,14.74,17.43\Bq,0,18.47,14.74,17.63\Bq,0,18.47,14.74,17.8
 3\Bq,0,18.47,14.74,18.03\Bq,0,18.47,14.74,18.23\Bq,0,18.47,14.74,18.43
 \Bq,0,18.47,14.74,18.63\Bq,0,18.47,14.74,18.83\Bq,0,18.47,14.74,19.03\
 Bq,0,18.47,14.74,19.23\Bq,0,18.47,14.74,19.43\Bq,0,18.47,14.74,19.63\B
 q,0,18.47,14.74,19.83\Bq,0,18.47,14.74,20.03\Bq,0,18.47,14.74,20.23\Bq
 ,0,18.47,14.74,20.43\Bq,0,18.47,14.74,20.63\Bq,0,18.47,14.74,20.83\Bq,
 0,18.47,14.74,21.03\Bq,0,18.47,14.74,21.23\Bq,0,18.47,14.74,21.43\Bq,0
 ,18.47,14.94,7.23\Bq,0,18.47,14.94,7.43\Bq,0,18.47,14.94,7.63\Bq,0,18.
 47,14.94,7.83\Bq,0,18.47,14.94,8.03\Bq,0,18.47,14.94,8.23\Bq,0,18.47,1
 4.94,8.43\Bq,0,18.47,14.94,8.63\Bq,0,18.47,14.94,8.83\Bq,0,18.47,14.94
 ,9.03\Bq,0,18.47,14.94,9.23\Bq,0,18.47,14.94,9.43\Bq,0,18.47,14.94,9.6
 3\Bq,0,18.47,14.94,9.83\Bq,0,18.47,14.94,10.03\Bq,0,18.47,14.94,10.23\
 Bq,0,18.47,14.94,10.43\Bq,0,18.47,14.94,10.63\Bq,0,18.47,14.94,10.83\B
 q,0,18.47,14.94,11.03\Bq,0,18.47,14.94,11.23\Bq,0,18.47,14.94,11.43\Bq
 ,0,18.47,14.94,11.63\Bq,0,18.47,14.94,11.83\Bq,0,18.47,14.94,12.03\Bq,
 0,18.47,14.94,12.23\Bq,0,18.47,14.94,12.43\Bq,0,18.47,14.94,12.63\Bq,0
 ,18.47,14.94,12.83\Bq,0,18.47,14.94,13.03\Bq,0,18.47,14.94,13.23\Bq,0,
 18.47,14.94,13.43\Bq,0,18.47,14.94,13.63\Bq,0,18.47,14.94,13.83\Bq,0,1
 8.47,14.94,14.03\Bq,0,18.47,14.94,14.23\Bq,0,18.47,14.94,14.43\Bq,0,18
 .47,14.94,14.63\Bq,0,18.47,14.94,14.83\Bq,0,18.47,14.94,15.03\Bq,0,18.
 47,14.94,15.23\Bq,0,18.47,14.94,15.43\Bq,0,18.47,14.94,15.63\Bq,0,18.4
 7,14.94,15.83\Bq,0,18.47,14.94,16.03\Bq,0,18.47,14.94,16.23\Bq,0,18.47
 ,14.94,16.43\Bq,0,18.47,14.94,16.63\Bq,0,18.47,14.94,16.83\Bq,0,18.47,
 14.94,17.03\Bq,0,18.47,14.94,17.23\Bq,0,18.47,14.94,17.43\Bq,0,18.47,1
 4.94,17.63\Bq,0,18.47,14.94,17.83\Bq,0,18.47,14.94,18.03\Bq,0,18.47,14
 .94,18.23\Bq,0,18.47,14.94,18.43\Bq,0,18.47,14.94,18.63\Bq,0,18.47,14.
 94,18.83\Bq,0,18.47,14.94,19.03\Bq,0,18.47,14.94,19.23\Bq,0,18.47,14.9
 4,19.43\Bq,0,18.47,14.94,19.63\Bq,0,18.47,14.94,19.83\Bq,0,18.47,14.94
 ,20.03\Bq,0,18.47,14.94,20.23\Bq,0,18.47,14.94,20.43\Bq,0,18.47,14.94,
 20.63\Bq,0,18.47,14.94,20.83\Bq,0,18.47,14.94,21.03\Bq,0,18.47,14.94,2
 1.23\Bq,0,18.47,14.94,21.43\\Version=ES64L-G16RevB.01\HF=-6929.679752\
 RMSD=1.228e-09\Dipole=0.0001103,0.1234108,0.0000479\Quadrupole=1.08441
 38,3.9612555,-5.0456693,2.2210533,0.3368549,3.3304192\PG=C01 [X(C56H30
 S12)]\\@


 BE LIKE A POSTAGE STAMP.  STICK TO ONE THING UNTIL
 YOU GET THERE -- JOSH BILLINGS
 Job cpu time:       0 days  0 hours 55 minutes  5.8 seconds.
 Elapsed time:       0 days  0 hours 10 minutes 25.9 seconds.
 File lengths (MBytes):  RWF=    787 Int=      0 D2E=      0 Chk=    115 Scr=      1
 Normal termination of Gaussian 16 at Tue Mar 21 02:18:32 2023.
