 Entering Gaussian System, Link 0=g16
 Initial command:
 /home/wangzhe/g16/l1.exe "/home/wangzhe/g16/Scratch/Gau-256785.inp" -scrdir="/home/wangzhe/g16/Scratch/"
 Default is to use a total of  16 processors:
                               16 via shared-memory
                                1 via Linda
 Entering Link 1 = /home/wangzhe/g16/l1.exe PID=    256787.
  
 Copyright (c) 1988-2017, Gaussian, Inc.  All Rights Reserved.
  
 This is part of the Gaussian(R) 16 program.  It is based on
 the Gaussian(R) 09 system (copyright 2009, Gaussian, Inc.),
 the Gaussian(R) 03 system (copyright 2003, Gaussian, Inc.),
 the Gaussian(R) 98 system (copyright 1998, Gaussian, Inc.),
 the Gaussian(R) 94 system (copyright 1995, Gaussian, Inc.),
 the Gaussian 92(TM) system (copyright 1992, Gaussian, Inc.),
 the Gaussian 90(TM) system (copyright 1990, Gaussian, Inc.),
 the Gaussian 88(TM) system (copyright 1988, Gaussian, Inc.),
 the Gaussian 86(TM) system (copyright 1986, Carnegie Mellon
 University), and the Gaussian 82(TM) system (copyright 1983,
 Carnegie Mellon University). Gaussian is a federally registered
 trademark of Gaussian, Inc.
  
 This software contains proprietary and confidential information,
 including trade secrets, belonging to Gaussian, Inc.
  
 This software is provided under written license and may be
 used, copied, transmitted, or stored only in accord with that
 written license.
  
 The following legend is applicable only to US Government
 contracts under FAR:
  
                    RESTRICTED RIGHTS LEGEND
  
 Use, reproduction and disclosure by the US Government is
 subject to restrictions as set forth in subparagraphs (a)
 and (c) of the Commercial Computer Software - Restricted
 Rights clause in FAR 52.227-19.
  
 Gaussian, Inc.
 340 Quinnipiac St., Bldg. 40, Wallingford CT 06492
  
  
 ---------------------------------------------------------------
 Warning -- This program may not be used in any manner that
 competes with the business of Gaussian, Inc. or will provide
 assistance to any competitor of Gaussian, Inc.  The licensee
 of this program is prohibited from giving any competitor of
 Gaussian, Inc. access to this program.  By using this program,
 the user acknowledges that Gaussian, Inc. is engaged in the
 business of creating and licensing software in the field of
 computational chemistry and represents and warrants to the
 licensee that it is not a competitor of Gaussian, Inc. and that
 it will not use this program in any manner prohibited above.
 ---------------------------------------------------------------
  

 Cite this work as:
 Gaussian 16, Revision B.01,
 M. J. Frisch, G. W. Trucks, H. B. Schlegel, G. E. Scuseria, 
 M. A. Robb, J. R. Cheeseman, G. Scalmani, V. Barone, 
 G. A. Petersson, H. Nakatsuji, X. Li, M. Caricato, A. V. Marenich, 
 J. Bloino, B. G. Janesko, R. Gomperts, B. Mennucci, H. P. Hratchian, 
 J. V. Ortiz, A. F. Izmaylov, J. L. Sonnenberg, D. Williams-Young, 
 F. Ding, F. Lipparini, F. Egidi, J. Goings, B. Peng, A. Petrone, 
 T. Henderson, D. Ranasinghe, V. G. Zakrzewski, J. Gao, N. Rega, 
 G. Zheng, W. Liang, M. Hada, M. Ehara, K. Toyota, R. Fukuda, 
 J. Hasegawa, M. Ishida, T. Nakajima, Y. Honda, O. Kitao, H. Nakai, 
 T. Vreven, K. Throssell, J. A. Montgomery, Jr., J. E. Peralta, 
 F. Ogliaro, M. J. Bearpark, J. J. Heyd, E. N. Brothers, K. N. Kudin, 
 V. N. Staroverov, T. A. Keith, R. Kobayashi, J. Normand, 
 K. Raghavachari, A. P. Rendell, J. C. Burant, S. S. Iyengar, 
 J. Tomasi, M. Cossi, J. M. Millam, M. Klene, C. Adamo, R. Cammi, 
 J. W. Ochterski, R. L. Martin, K. Morokuma, O. Farkas, 
 J. B. Foresman, and D. J. Fox, Gaussian, Inc., Wallingford CT, 2016.
 
 ******************************************
 Gaussian 16:  ES64L-G16RevB.01 20-Dec-2017
                31-Jan-2023 
 ******************************************
 %nprocshared=8
 Will use up to    8 processors via shared memory.
 %mem=10GB
 %chk=1mer_Ph_S0_anti.chk
 ------------------------------
 #p opt freq rwb97xd/6-31g(d,p)
 ------------------------------
 1/18=20,19=15,26=3,38=1/1,3;
 2/9=110,12=2,17=6,18=5,40=1/2;
 3/5=1,6=6,7=101,11=2,25=1,30=1,71=1,74=-58,116=1/1,2,3;
 4//1;
 5/5=2,38=5/2;
 6/7=2,8=2,9=2,10=2,28=1/1;
 7//1,2,3,16;
 1/18=20,19=15,26=3/3(2);
 2/9=110/2;
 99//99;
 2/9=110/2;
 3/5=1,6=6,7=101,11=2,25=1,30=1,71=1,74=-58,116=1/1,2,3;
 4/5=5,16=3,69=1/1;
 5/5=2,38=5/2;
 7//1,2,3,16;
 1/18=20,19=15,26=3/3(-5);
 2/9=110/2;
 6/7=2,8=2,9=2,10=2,19=2,28=1/1;
 99/9=1/99;
 Leave Link    1 at Tue Jan 31 17:44:12 2023, MaxMem=  1342177280 cpu:               0.4 elap:               0.0
 (Enter /home/wangzhe/g16/l101.exe)
 -----
 title
 -----
 Symbolic Z-matrix:
 Charge =  0 Multiplicity = 1
 H                    -0.214     0.386    -2.388 
 C                    -0.274     0.379    -1.305 
 C                    -0.347     0.36      1.513 
 C                    -0.332    -0.815    -0.595 
 C                    -0.271     1.578    -0.594 
 C                    -0.3       1.568     0.805 
 C                    -0.397    -0.836     0.812 
 H                    -0.223     2.524    -1.128 
 H                    -0.267     2.509     1.35 
 H                    -0.312     0.399     2.593 
 C                    -0.281    -2.184    -1.127 
 C                    -0.31     -3.008    -0.062 
 H                    -0.359    -4.078    -0.157 
 C                    -0.411    -2.27      1.198 
 H                    -1.048    -5.502     5.963 
 C                    -0.774    -5.479     4.914 
 C                     0.017    -5.401     2.209 
 C                    -0.801    -4.291     4.191 
 C                    -0.362    -6.644     4.269 
 C                     0.037    -6.603     2.928 
 C                    -0.435    -4.245     2.832 
 H                    -0.33     -7.583     4.815 
 H                     0.385    -7.513     2.443 
 H                     0.387    -5.406     1.193 
 C                    -1.134    -2.946     4.678 
 C                    -0.967    -2.11      3.634 
 H                    -1.213    -1.064     3.683 
 C                    -0.559    -2.823     2.424 
 C                    -1.621    -2.503     5.986 
 C                    -2.559    -1.665     8.494 
 C                    -2.781    -3.064     6.535 
 C                    -0.937    -1.516     6.708 
 C                    -1.404    -1.1       7.957 
 C                    -3.248    -2.647     7.784 
 H                    -3.334    -3.824     5.988 
 H                    -0.028    -1.073     6.307 
 H                    -0.864    -0.336     8.511 
 H                    -4.151    -3.086     8.199 
 H                    -2.923    -1.341     9.465 
 C                    -0.267    -2.666    -2.51 
 C                    -0.247    -3.579    -5.162 
 C                    -1.277    -2.283    -3.401 
 C                     0.754    -3.512    -2.963 
 C                     0.764    -3.966    -4.284 
 C                    -1.267    -2.738    -4.722 
 H                    -2.085    -1.635    -3.069 
 H                     1.554    -3.815    -2.292 
 H                     1.562    -4.62     -4.627 
 H                    -2.058    -2.437    -5.404 
 H                    -0.239    -3.933    -6.19 
 
 ITRead=  0  0  0  0  0  0  0  0  0  0  0  0  0  0  0  0  0  0  0  0
 ITRead=  0  0  0  0  0  0  0  0  0  0  0  0  0  0  0  0  0  0  0  0
 ITRead=  0  0  0  0  0  0  0  0  0  0
 MicOpt= -1 -1 -1 -1 -1 -1 -1 -1 -1 -1 -1 -1 -1 -1 -1 -1 -1 -1 -1 -1
 MicOpt= -1 -1 -1 -1 -1 -1 -1 -1 -1 -1 -1 -1 -1 -1 -1 -1 -1 -1 -1 -1
 MicOpt= -1 -1 -1 -1 -1 -1 -1 -1 -1 -1
 NAtoms=     50 NQM=       50 NQMF=       0 NMMI=      0 NMMIF=      0
                NMic=       0 NMicF=      0.
                    Isotopes and Nuclear Properties:
 (Nuclear quadrupole moments (NQMom) in fm**2, nuclear magnetic moments (NMagM)
  in nuclear magnetons)

  Atom         1           2           3           4           5           6           7           8           9          10
 IAtWgt=           1          12          12          12          12          12          12           1           1           1
 AtmWgt=   1.0078250  12.0000000  12.0000000  12.0000000  12.0000000  12.0000000  12.0000000   1.0078250   1.0078250   1.0078250
 NucSpn=           1           0           0           0           0           0           0           1           1           1
 AtZEff=  -0.0000000  -0.0000000  -0.0000000  -0.0000000  -0.0000000  -0.0000000  -0.0000000  -0.0000000  -0.0000000  -0.0000000
 NQMom=    0.0000000   0.0000000   0.0000000   0.0000000   0.0000000   0.0000000   0.0000000   0.0000000   0.0000000   0.0000000
 NMagM=    2.7928460   0.0000000   0.0000000   0.0000000   0.0000000   0.0000000   0.0000000   2.7928460   2.7928460   2.7928460
 AtZNuc=   1.0000000   6.0000000   6.0000000   6.0000000   6.0000000   6.0000000   6.0000000   1.0000000   1.0000000   1.0000000

  Atom        11          12          13          14          15          16          17          18          19          20
 IAtWgt=          12          12           1          12           1          12          12          12          12          12
 AtmWgt=  12.0000000  12.0000000   1.0078250  12.0000000   1.0078250  12.0000000  12.0000000  12.0000000  12.0000000  12.0000000
 NucSpn=           0           0           1           0           1           0           0           0           0           0
 AtZEff=  -0.0000000  -0.0000000  -0.0000000  -0.0000000  -0.0000000  -0.0000000  -0.0000000  -0.0000000  -0.0000000  -0.0000000
 NQMom=    0.0000000   0.0000000   0.0000000   0.0000000   0.0000000   0.0000000   0.0000000   0.0000000   0.0000000   0.0000000
 NMagM=    0.0000000   0.0000000   2.7928460   0.0000000   2.7928460   0.0000000   0.0000000   0.0000000   0.0000000   0.0000000
 AtZNuc=   6.0000000   6.0000000   1.0000000   6.0000000   1.0000000   6.0000000   6.0000000   6.0000000   6.0000000   6.0000000

  Atom        21          22          23          24          25          26          27          28          29          30
 IAtWgt=          12           1           1           1          12          12           1          12          12          12
 AtmWgt=  12.0000000   1.0078250   1.0078250   1.0078250  12.0000000  12.0000000   1.0078250  12.0000000  12.0000000  12.0000000
 NucSpn=           0           1           1           1           0           0           1           0           0           0
 AtZEff=  -0.0000000  -0.0000000  -0.0000000  -0.0000000  -0.0000000  -0.0000000  -0.0000000  -0.0000000  -0.0000000  -0.0000000
 NQMom=    0.0000000   0.0000000   0.0000000   0.0000000   0.0000000   0.0000000   0.0000000   0.0000000   0.0000000   0.0000000
 NMagM=    0.0000000   2.7928460   2.7928460   2.7928460   0.0000000   0.0000000   2.7928460   0.0000000   0.0000000   0.0000000
 AtZNuc=   6.0000000   1.0000000   1.0000000   1.0000000   6.0000000   6.0000000   1.0000000   6.0000000   6.0000000   6.0000000

  Atom        31          32          33          34          35          36          37          38          39          40
 IAtWgt=          12          12          12          12           1           1           1           1           1          12
 AtmWgt=  12.0000000  12.0000000  12.0000000  12.0000000   1.0078250   1.0078250   1.0078250   1.0078250   1.0078250  12.0000000
 NucSpn=           0           0           0           0           1           1           1           1           1           0
 AtZEff=  -0.0000000  -0.0000000  -0.0000000  -0.0000000  -0.0000000  -0.0000000  -0.0000000  -0.0000000  -0.0000000  -0.0000000
 NQMom=    0.0000000   0.0000000   0.0000000   0.0000000   0.0000000   0.0000000   0.0000000   0.0000000   0.0000000   0.0000000
 NMagM=    0.0000000   0.0000000   0.0000000   0.0000000   2.7928460   2.7928460   2.7928460   2.7928460   2.7928460   0.0000000
 AtZNuc=   6.0000000   6.0000000   6.0000000   6.0000000   1.0000000   1.0000000   1.0000000   1.0000000   1.0000000   6.0000000

  Atom        41          42          43          44          45          46          47          48          49          50
 IAtWgt=          12          12          12          12          12           1           1           1           1           1
 AtmWgt=  12.0000000  12.0000000  12.0000000  12.0000000  12.0000000   1.0078250   1.0078250   1.0078250   1.0078250   1.0078250
 NucSpn=           0           0           0           0           0           1           1           1           1           1
 AtZEff=  -0.0000000  -0.0000000  -0.0000000  -0.0000000  -0.0000000  -0.0000000  -0.0000000  -0.0000000  -0.0000000  -0.0000000
 NQMom=    0.0000000   0.0000000   0.0000000   0.0000000   0.0000000   0.0000000   0.0000000   0.0000000   0.0000000   0.0000000
 NMagM=    0.0000000   0.0000000   0.0000000   0.0000000   0.0000000   2.7928460   2.7928460   2.7928460   2.7928460   2.7928460
 AtZNuc=   6.0000000   6.0000000   6.0000000   6.0000000   6.0000000   1.0000000   1.0000000   1.0000000   1.0000000   1.0000000
 Leave Link  101 at Tue Jan 31 17:44:12 2023, MaxMem=  1342177280 cpu:               0.6 elap:               0.1
 (Enter /home/wangzhe/g16/l103.exe)

 GradGradGradGradGradGradGradGradGradGradGradGradGradGradGradGradGradGrad
 Berny optimization.
 Initialization pass.
                           ----------------------------
                           !    Initial Parameters    !
                           ! (Angstroms and Degrees)  !
 --------------------------                            --------------------------
 ! Name  Definition              Value          Derivative Info.                !
 --------------------------------------------------------------------------------
 ! R1    R(1,2)                  1.0847         estimate D2E/DX2                !
 ! R2    R(2,4)                  1.3904         estimate D2E/DX2                !
 ! R3    R(2,5)                  1.394          estimate D2E/DX2                !
 ! R4    R(3,6)                  1.401          estimate D2E/DX2                !
 ! R5    R(3,7)                  1.3872         estimate D2E/DX2                !
 ! R6    R(3,10)                 1.0813         estimate D2E/DX2                !
 ! R7    R(4,7)                  1.4087         estimate D2E/DX2                !
 ! R8    R(4,11)                 1.4696         estimate D2E/DX2                !
 ! R9    R(5,6)                  1.3993         estimate D2E/DX2                !
 ! R10   R(5,8)                  1.0874         estimate D2E/DX2                !
 ! R11   R(6,9)                  1.0879         estimate D2E/DX2                !
 ! R12   R(7,14)                 1.4851         estimate D2E/DX2                !
 ! R13   R(11,12)                1.3469         estimate D2E/DX2                !
 ! R14   R(11,40)                1.4647         estimate D2E/DX2                !
 ! R15   R(12,13)                1.0753         estimate D2E/DX2                !
 ! R16   R(12,14)                1.4637         estimate D2E/DX2                !
 ! R17   R(14,28)                1.3531         estimate D2E/DX2                !
 ! R18   R(15,16)                1.0844         estimate D2E/DX2                !
 ! R19   R(16,18)                1.391          estimate D2E/DX2                !
 ! R20   R(16,19)                1.3939         estimate D2E/DX2                !
 ! R21   R(17,20)                1.4008         estimate D2E/DX2                !
 ! R22   R(17,21)                1.3888         estimate D2E/DX2                !
 ! R23   R(17,24)                1.0813         estimate D2E/DX2                !
 ! R24   R(18,21)                1.4082         estimate D2E/DX2                !
 ! R25   R(18,25)                1.4687         estimate D2E/DX2                !
 ! R26   R(19,20)                1.3997         estimate D2E/DX2                !
 ! R27   R(19,22)                1.0867         estimate D2E/DX2                !
 ! R28   R(20,23)                1.0883         estimate D2E/DX2                !
 ! R29   R(21,28)                1.4846         estimate D2E/DX2                !
 ! R30   R(25,26)                1.3479         estimate D2E/DX2                !
 ! R31   R(25,29)                1.4643         estimate D2E/DX2                !
 ! R32   R(26,27)                1.0757         estimate D2E/DX2                !
 ! R33   R(26,28)                1.4625         estimate D2E/DX2                !
 ! R34   R(29,31)                1.4006         estimate D2E/DX2                !
 ! R35   R(29,32)                1.4012         estimate D2E/DX2                !
 ! R36   R(30,33)                1.3934         estimate D2E/DX2                !
 ! R37   R(30,34)                1.394          estimate D2E/DX2                !
 ! R38   R(30,39)                1.0864         estimate D2E/DX2                !
 ! R39   R(31,34)                1.3971         estimate D2E/DX2                !
 ! R40   R(31,35)                1.0875         estimate D2E/DX2                !
 ! R41   R(32,33)                1.3968         estimate D2E/DX2                !
 ! R42   R(32,36)                1.0878         estimate D2E/DX2                !
 ! R43   R(33,37)                1.0873         estimate D2E/DX2                !
 ! R44   R(34,38)                1.0864         estimate D2E/DX2                !
 ! R45   R(40,42)                1.4002         estimate D2E/DX2                !
 ! R46   R(40,43)                1.4012         estimate D2E/DX2                !
 ! R47   R(41,44)                1.3938         estimate D2E/DX2                !
 ! R48   R(41,45)                1.3933         estimate D2E/DX2                !
 ! R49   R(41,50)                1.0873         estimate D2E/DX2                !
 ! R50   R(42,45)                1.3972         estimate D2E/DX2                !
 ! R51   R(42,46)                1.0877         estimate D2E/DX2                !
 ! R52   R(43,44)                1.3969         estimate D2E/DX2                !
 ! R53   R(43,47)                1.0872         estimate D2E/DX2                !
 ! R54   R(44,48)                1.0873         estimate D2E/DX2                !
 ! R55   R(45,49)                1.0869         estimate D2E/DX2                !
 ! A1    A(1,2,4)              121.1792         estimate D2E/DX2                !
 ! A2    A(1,2,5)              120.2381         estimate D2E/DX2                !
 ! A3    A(4,2,5)              118.5735         estimate D2E/DX2                !
 ! A4    A(6,3,7)              119.2908         estimate D2E/DX2                !
 ! A5    A(6,3,10)             118.202          estimate D2E/DX2                !
 ! A6    A(7,3,10)             122.48           estimate D2E/DX2                !
 ! A7    A(2,4,7)              121.6538         estimate D2E/DX2                !
 ! A8    A(2,4,11)             127.8552         estimate D2E/DX2                !
 ! A9    A(7,4,11)             110.4437         estimate D2E/DX2                !
 ! A10   A(2,5,6)              120.2479         estimate D2E/DX2                !
 ! A11   A(2,5,8)              119.8625         estimate D2E/DX2                !
 ! A12   A(6,5,8)              119.8748         estimate D2E/DX2                !
 ! A13   A(3,6,5)              120.8036         estimate D2E/DX2                !
 ! A14   A(3,6,9)              119.5814         estimate D2E/DX2                !
 ! A15   A(5,6,9)              119.6052         estimate D2E/DX2                !
 ! A16   A(3,7,4)              119.3553         estimate D2E/DX2                !
 ! A17   A(3,7,14)             134.5471         estimate D2E/DX2                !
 ! A18   A(4,7,14)             105.9285         estimate D2E/DX2                !
 ! A19   A(4,11,12)            106.4343         estimate D2E/DX2                !
 ! A20   A(4,11,40)            130.444          estimate D2E/DX2                !
 ! A21   A(12,11,40)           123.0599         estimate D2E/DX2                !
 ! A22   A(11,12,13)           122.6759         estimate D2E/DX2                !
 ! A23   A(11,12,14)           111.9439         estimate D2E/DX2                !
 ! A24   A(13,12,14)           125.0721         estimate D2E/DX2                !
 ! A25   A(7,14,12)            105.2158         estimate D2E/DX2                !
 ! A26   A(7,14,28)            129.1367         estimate D2E/DX2                !
 ! A27   A(12,14,28)           125.5538         estimate D2E/DX2                !
 ! A28   A(15,16,18)           121.0646         estimate D2E/DX2                !
 ! A29   A(15,16,19)           120.3021         estimate D2E/DX2                !
 ! A30   A(18,16,19)           118.6228         estimate D2E/DX2                !
 ! A31   A(20,17,21)           119.2518         estimate D2E/DX2                !
 ! A32   A(20,17,24)           118.258          estimate D2E/DX2                !
 ! A33   A(21,17,24)           122.4606         estimate D2E/DX2                !
 ! A34   A(16,18,21)           121.6335         estimate D2E/DX2                !
 ! A35   A(16,18,25)           127.8934         estimate D2E/DX2                !
 ! A36   A(21,18,25)           110.4275         estimate D2E/DX2                !
 ! A37   A(16,19,20)           120.2049         estimate D2E/DX2                !
 ! A38   A(16,19,22)           119.8945         estimate D2E/DX2                !
 ! A39   A(20,19,22)           119.8873         estimate D2E/DX2                !
 ! A40   A(17,20,19)           120.8523         estimate D2E/DX2                !
 ! A41   A(17,20,23)           119.5594         estimate D2E/DX2                !
 ! A42   A(19,20,23)           119.5783         estimate D2E/DX2                !
 ! A43   A(17,21,18)           119.3619         estimate D2E/DX2                !
 ! A44   A(17,21,28)           134.5229         estimate D2E/DX2                !
 ! A45   A(18,21,28)           105.9508         estimate D2E/DX2                !
 ! A46   A(18,25,26)           106.444          estimate D2E/DX2                !
 ! A47   A(18,25,29)           130.4388         estimate D2E/DX2                !
 ! A48   A(26,25,29)           123.0543         estimate D2E/DX2                !
 ! A49   A(25,26,27)           122.6512         estimate D2E/DX2                !
 ! A50   A(25,26,28)           111.9017         estimate D2E/DX2                !
 ! A51   A(27,26,28)           125.1393         estimate D2E/DX2                !
 ! A52   A(14,28,21)           129.1506         estimate D2E/DX2                !
 ! A53   A(14,28,26)           125.5149         estimate D2E/DX2                !
 ! A54   A(21,28,26)           105.242          estimate D2E/DX2                !
 ! A55   A(25,29,31)           120.2908         estimate D2E/DX2                !
 ! A56   A(25,29,32)           120.7317         estimate D2E/DX2                !
 ! A57   A(31,29,32)           118.9774         estimate D2E/DX2                !
 ! A58   A(33,30,34)           119.9375         estimate D2E/DX2                !
 ! A59   A(33,30,39)           120.0816         estimate D2E/DX2                !
 ! A60   A(34,30,39)           119.9809         estimate D2E/DX2                !
 ! A61   A(29,31,34)           120.5105         estimate D2E/DX2                !
 ! A62   A(29,31,35)           120.2594         estimate D2E/DX2                !
 ! A63   A(34,31,35)           119.2276         estimate D2E/DX2                !
 ! A64   A(29,32,33)           120.4857         estimate D2E/DX2                !
 ! A65   A(29,32,36)           120.3202         estimate D2E/DX2                !
 ! A66   A(33,32,36)           119.1899         estimate D2E/DX2                !
 ! A67   A(30,33,32)           120.0636         estimate D2E/DX2                !
 ! A68   A(30,33,37)           120.0145         estimate D2E/DX2                !
 ! A69   A(32,33,37)           119.9218         estimate D2E/DX2                !
 ! A70   A(30,34,31)           120.0252         estimate D2E/DX2                !
 ! A71   A(30,34,38)           120.0604         estimate D2E/DX2                !
 ! A72   A(31,34,38)           119.9138         estimate D2E/DX2                !
 ! A73   A(11,40,42)           120.2608         estimate D2E/DX2                !
 ! A74   A(11,40,43)           120.7257         estimate D2E/DX2                !
 ! A75   A(42,40,43)           119.0134         estimate D2E/DX2                !
 ! A76   A(44,41,45)           119.978          estimate D2E/DX2                !
 ! A77   A(44,41,50)           119.9895         estimate D2E/DX2                !
 ! A78   A(45,41,50)           120.0326         estimate D2E/DX2                !
 ! A79   A(40,42,45)           120.4895         estimate D2E/DX2                !
 ! A80   A(40,42,46)           120.303          estimate D2E/DX2                !
 ! A81   A(45,42,46)           119.2046         estimate D2E/DX2                !
 ! A82   A(40,43,44)           120.4763         estimate D2E/DX2                !
 ! A83   A(40,43,47)           120.3248         estimate D2E/DX2                !
 ! A84   A(44,43,47)           119.1962         estimate D2E/DX2                !
 ! A85   A(41,44,43)           120.0178         estimate D2E/DX2                !
 ! A86   A(41,44,48)           120.0428         estimate D2E/DX2                !
 ! A87   A(43,44,48)           119.9393         estimate D2E/DX2                !
 ! A88   A(41,45,42)           120.0251         estimate D2E/DX2                !
 ! A89   A(41,45,49)           120.1169         estimate D2E/DX2                !
 ! A90   A(42,45,49)           119.8577         estimate D2E/DX2                !
 ! D1    D(1,2,4,7)            179.3733         estimate D2E/DX2                !
 ! D2    D(1,2,4,11)             2.1233         estimate D2E/DX2                !
 ! D3    D(5,2,4,7)              0.4716         estimate D2E/DX2                !
 ! D4    D(5,2,4,11)          -176.7784         estimate D2E/DX2                !
 ! D5    D(1,2,5,6)           -177.7036         estimate D2E/DX2                !
 ! D6    D(1,2,5,8)              0.8962         estimate D2E/DX2                !
 ! D7    D(4,2,5,6)              1.2088         estimate D2E/DX2                !
 ! D8    D(4,2,5,8)            179.8086         estimate D2E/DX2                !
 ! D9    D(7,3,6,5)             -1.527          estimate D2E/DX2                !
 ! D10   D(7,3,6,9)            179.6174         estimate D2E/DX2                !
 ! D11   D(10,3,6,5)           176.6249         estimate D2E/DX2                !
 ! D12   D(10,3,6,9)            -2.2307         estimate D2E/DX2                !
 ! D13   D(6,3,7,4)              3.1551         estimate D2E/DX2                !
 ! D14   D(6,3,7,14)           177.678          estimate D2E/DX2                !
 ! D15   D(10,3,7,4)          -174.9142         estimate D2E/DX2                !
 ! D16   D(10,3,7,14)           -0.3913         estimate D2E/DX2                !
 ! D17   D(2,4,7,3)             -2.6842         estimate D2E/DX2                !
 ! D18   D(2,4,7,14)          -178.6277         estimate D2E/DX2                !
 ! D19   D(11,4,7,3)           174.9988         estimate D2E/DX2                !
 ! D20   D(11,4,7,14)           -0.9447         estimate D2E/DX2                !
 ! D21   D(2,4,11,12)          177.294          estimate D2E/DX2                !
 ! D22   D(2,4,11,40)           -5.556          estimate D2E/DX2                !
 ! D23   D(7,4,11,12)           -0.2079         estimate D2E/DX2                !
 ! D24   D(7,4,11,40)          176.9421         estimate D2E/DX2                !
 ! D25   D(2,5,6,3)             -0.6951         estimate D2E/DX2                !
 ! D26   D(2,5,6,9)            178.1602         estimate D2E/DX2                !
 ! D27   D(8,5,6,3)           -179.2947         estimate D2E/DX2                !
 ! D28   D(8,5,6,9)             -0.4394         estimate D2E/DX2                !
 ! D29   D(3,7,14,12)         -173.3849         estimate D2E/DX2                !
 ! D30   D(3,7,14,28)           10.0304         estimate D2E/DX2                !
 ! D31   D(4,7,14,12)            1.652          estimate D2E/DX2                !
 ! D32   D(4,7,14,28)         -174.9327         estimate D2E/DX2                !
 ! D33   D(4,11,12,13)         175.2502         estimate D2E/DX2                !
 ! D34   D(4,11,12,14)           1.3307         estimate D2E/DX2                !
 ! D35   D(40,11,12,13)         -2.162          estimate D2E/DX2                !
 ! D36   D(40,11,12,14)       -176.0815         estimate D2E/DX2                !
 ! D37   D(4,11,40,42)         -55.0688         estimate D2E/DX2                !
 ! D38   D(4,11,40,43)         124.7937         estimate D2E/DX2                !
 ! D39   D(12,11,40,42)        121.6692         estimate D2E/DX2                !
 ! D40   D(12,11,40,43)        -58.4684         estimate D2E/DX2                !
 ! D41   D(11,12,14,7)          -1.9027         estimate D2E/DX2                !
 ! D42   D(11,12,14,28)        174.8414         estimate D2E/DX2                !
 ! D43   D(13,12,14,7)        -175.6483         estimate D2E/DX2                !
 ! D44   D(13,12,14,28)          1.0958         estimate D2E/DX2                !
 ! D45   D(7,14,28,21)        -173.0175         estimate D2E/DX2                !
 ! D46   D(7,14,28,26)          11.0078         estimate D2E/DX2                !
 ! D47   D(12,14,28,21)         11.0343         estimate D2E/DX2                !
 ! D48   D(12,14,28,26)       -164.9404         estimate D2E/DX2                !
 ! D49   D(15,16,18,21)        179.3628         estimate D2E/DX2                !
 ! D50   D(15,16,18,25)          2.0633         estimate D2E/DX2                !
 ! D51   D(19,16,18,21)          0.5388         estimate D2E/DX2                !
 ! D52   D(19,16,18,25)       -176.7607         estimate D2E/DX2                !
 ! D53   D(15,16,19,20)       -177.7044         estimate D2E/DX2                !
 ! D54   D(15,16,19,22)          0.9708         estimate D2E/DX2                !
 ! D55   D(18,16,19,20)          1.1289         estimate D2E/DX2                !
 ! D56   D(18,16,19,22)        179.804          estimate D2E/DX2                !
 ! D57   D(21,17,20,19)         -1.4977         estimate D2E/DX2                !
 ! D58   D(21,17,20,23)        179.6604         estimate D2E/DX2                !
 ! D59   D(24,17,20,19)        176.5735         estimate D2E/DX2                !
 ! D60   D(24,17,20,23)         -2.2684         estimate D2E/DX2                !
 ! D61   D(20,17,21,18)          3.113          estimate D2E/DX2                !
 ! D62   D(20,17,21,28)        177.7129         estimate D2E/DX2                !
 ! D63   D(24,17,21,18)       -174.8734         estimate D2E/DX2                !
 ! D64   D(24,17,21,28)         -0.2736         estimate D2E/DX2                !
 ! D65   D(16,18,21,17)         -2.6902         estimate D2E/DX2                !
 ! D66   D(16,18,21,28)       -178.6885         estimate D2E/DX2                !
 ! D67   D(25,18,21,17)        175.036          estimate D2E/DX2                !
 ! D68   D(25,18,21,28)         -0.9624         estimate D2E/DX2                !
 ! D69   D(16,18,25,26)        177.3548         estimate D2E/DX2                !
 ! D70   D(16,18,25,29)         -5.522          estimate D2E/DX2                !
 ! D71   D(21,18,25,26)         -0.1919         estimate D2E/DX2                !
 ! D72   D(21,18,25,29)        176.9314         estimate D2E/DX2                !
 ! D73   D(16,19,20,17)         -0.6607         estimate D2E/DX2                !
 ! D74   D(16,19,20,23)        178.181          estimate D2E/DX2                !
 ! D75   D(22,19,20,17)       -179.3359         estimate D2E/DX2                !
 ! D76   D(22,19,20,23)         -0.4943         estimate D2E/DX2                !
 ! D77   D(17,21,28,14)          9.9549         estimate D2E/DX2                !
 ! D78   D(17,21,28,26)       -173.4402         estimate D2E/DX2                !
 ! D79   D(18,21,28,14)       -174.9387         estimate D2E/DX2                !
 ! D80   D(18,21,28,26)          1.6662         estimate D2E/DX2                !
 ! D81   D(18,25,26,27)        175.251          estimate D2E/DX2                !
 ! D82   D(18,25,26,28)          1.3235         estimate D2E/DX2                !
 ! D83   D(29,25,26,27)         -2.1369         estimate D2E/DX2                !
 ! D84   D(29,25,26,28)       -176.0644         estimate D2E/DX2                !
 ! D85   D(18,25,29,31)        -55.078          estimate D2E/DX2                !
 ! D86   D(18,25,29,32)        124.8448         estimate D2E/DX2                !
 ! D87   D(26,25,29,31)        121.6296         estimate D2E/DX2                !
 ! D88   D(26,25,29,32)        -58.4475         estimate D2E/DX2                !
 ! D89   D(25,26,28,14)        174.8598         estimate D2E/DX2                !
 ! D90   D(25,26,28,21)         -1.9058         estimate D2E/DX2                !
 ! D91   D(27,26,28,14)          1.1129         estimate D2E/DX2                !
 ! D92   D(27,26,28,21)       -175.6527         estimate D2E/DX2                !
 ! D93   D(25,29,31,34)        179.8495         estimate D2E/DX2                !
 ! D94   D(25,29,31,35)         -0.7191         estimate D2E/DX2                !
 ! D95   D(32,29,31,34)         -0.0747         estimate D2E/DX2                !
 ! D96   D(32,29,31,35)        179.3567         estimate D2E/DX2                !
 ! D97   D(25,29,32,33)       -179.8155         estimate D2E/DX2                !
 ! D98   D(25,29,32,36)         -0.5679         estimate D2E/DX2                !
 ! D99   D(31,29,32,33)          0.1083         estimate D2E/DX2                !
 ! D100  D(31,29,32,36)        179.3559         estimate D2E/DX2                !
 ! D101  D(34,30,33,32)          0.0493         estimate D2E/DX2                !
 ! D102  D(34,30,33,37)       -179.8237         estimate D2E/DX2                !
 ! D103  D(39,30,33,32)       -179.9427         estimate D2E/DX2                !
 ! D104  D(39,30,33,37)          0.1843         estimate D2E/DX2                !
 ! D105  D(33,30,34,31)         -0.0158         estimate D2E/DX2                !
 ! D106  D(33,30,34,38)       -179.7521         estimate D2E/DX2                !
 ! D107  D(39,30,34,31)        179.9762         estimate D2E/DX2                !
 ! D108  D(39,30,34,38)          0.24           estimate D2E/DX2                !
 ! D109  D(29,31,34,30)          0.029          estimate D2E/DX2                !
 ! D110  D(29,31,34,38)        179.7657         estimate D2E/DX2                !
 ! D111  D(35,31,34,30)       -179.4082         estimate D2E/DX2                !
 ! D112  D(35,31,34,38)          0.3285         estimate D2E/DX2                !
 ! D113  D(29,32,33,30)         -0.0964         estimate D2E/DX2                !
 ! D114  D(29,32,33,37)        179.7767         estimate D2E/DX2                !
 ! D115  D(36,32,33,30)       -179.3525         estimate D2E/DX2                !
 ! D116  D(36,32,33,37)          0.5206         estimate D2E/DX2                !
 ! D117  D(11,40,42,45)        179.8828         estimate D2E/DX2                !
 ! D118  D(11,40,42,46)         -0.7443         estimate D2E/DX2                !
 ! D119  D(43,40,42,45)          0.018          estimate D2E/DX2                !
 ! D120  D(43,40,42,46)        179.3909         estimate D2E/DX2                !
 ! D121  D(11,40,43,44)       -179.8442         estimate D2E/DX2                !
 ! D122  D(11,40,43,47)         -0.4549         estimate D2E/DX2                !
 ! D123  D(42,40,43,44)          0.02           estimate D2E/DX2                !
 ! D124  D(42,40,43,47)        179.4093         estimate D2E/DX2                !
 ! D125  D(45,41,44,43)          0.0641         estimate D2E/DX2                !
 ! D126  D(45,41,44,48)       -179.8283         estimate D2E/DX2                !
 ! D127  D(50,41,44,43)       -179.9733         estimate D2E/DX2                !
 ! D128  D(50,41,44,48)          0.1343         estimate D2E/DX2                !
 ! D129  D(44,41,45,42)         -0.0263         estimate D2E/DX2                !
 ! D130  D(44,41,45,49)       -179.8317         estimate D2E/DX2                !
 ! D131  D(50,41,45,42)       -179.9889         estimate D2E/DX2                !
 ! D132  D(50,41,45,49)          0.2057         estimate D2E/DX2                !
 ! D133  D(40,42,45,41)         -0.0149         estimate D2E/DX2                !
 ! D134  D(40,42,45,49)        179.791          estimate D2E/DX2                !
 ! D135  D(46,42,45,41)       -179.3946         estimate D2E/DX2                !
 ! D136  D(46,42,45,49)          0.4113         estimate D2E/DX2                !
 ! D137  D(40,43,44,41)         -0.0611         estimate D2E/DX2                !
 ! D138  D(40,43,44,48)        179.8314         estimate D2E/DX2                !
 ! D139  D(47,43,44,41)       -179.4572         estimate D2E/DX2                !
 ! D140  D(47,43,44,48)          0.4353         estimate D2E/DX2                !
 --------------------------------------------------------------------------------
 Trust Radius=3.00D-01 FncErr=1.00D-07 GrdErr=1.00D-06 EigMax=2.50D+02 EigMin=1.00D-04
 Number of steps in this run=    295 maximum allowed number of steps=    300.
 GradGradGradGradGradGradGradGradGradGradGradGradGradGradGradGradGradGrad

 Leave Link  103 at Tue Jan 31 17:44:12 2023, MaxMem=  1342177280 cpu:               0.0 elap:               0.0
 (Enter /home/wangzhe/g16/l202.exe)
                          Input orientation:                          
 ---------------------------------------------------------------------
 Center     Atomic      Atomic             Coordinates (Angstroms)
 Number     Number       Type             X           Y           Z
 ---------------------------------------------------------------------
      1          1           0       -0.214000    0.386000   -2.388000
      2          6           0       -0.274000    0.379000   -1.305000
      3          6           0       -0.347000    0.360000    1.513000
      4          6           0       -0.332000   -0.815000   -0.595000
      5          6           0       -0.271000    1.578000   -0.594000
      6          6           0       -0.300000    1.568000    0.805000
      7          6           0       -0.397000   -0.836000    0.812000
      8          1           0       -0.223000    2.524000   -1.128000
      9          1           0       -0.267000    2.509000    1.350000
     10          1           0       -0.312000    0.399000    2.593000
     11          6           0       -0.281000   -2.184000   -1.127000
     12          6           0       -0.310000   -3.008000   -0.062000
     13          1           0       -0.359000   -4.078000   -0.157000
     14          6           0       -0.411000   -2.270000    1.198000
     15          1           0       -1.048000   -5.502000    5.963000
     16          6           0       -0.774000   -5.479000    4.914000
     17          6           0        0.017000   -5.401000    2.209000
     18          6           0       -0.801000   -4.291000    4.191000
     19          6           0       -0.362000   -6.644000    4.269000
     20          6           0        0.037000   -6.603000    2.928000
     21          6           0       -0.435000   -4.245000    2.832000
     22          1           0       -0.330000   -7.583000    4.815000
     23          1           0        0.385000   -7.513000    2.443000
     24          1           0        0.387000   -5.406000    1.193000
     25          6           0       -1.134000   -2.946000    4.678000
     26          6           0       -0.967000   -2.110000    3.634000
     27          1           0       -1.213000   -1.064000    3.683000
     28          6           0       -0.559000   -2.823000    2.424000
     29          6           0       -1.621000   -2.503000    5.986000
     30          6           0       -2.559000   -1.665000    8.494000
     31          6           0       -2.781000   -3.064000    6.535000
     32          6           0       -0.937000   -1.516000    6.708000
     33          6           0       -1.404000   -1.100000    7.957000
     34          6           0       -3.248000   -2.647000    7.784000
     35          1           0       -3.334000   -3.824000    5.988000
     36          1           0       -0.028000   -1.073000    6.307000
     37          1           0       -0.864000   -0.336000    8.511000
     38          1           0       -4.151000   -3.086000    8.199000
     39          1           0       -2.923000   -1.341000    9.465000
     40          6           0       -0.267000   -2.666000   -2.510000
     41          6           0       -0.247000   -3.579000   -5.162000
     42          6           0       -1.277000   -2.283000   -3.401000
     43          6           0        0.754000   -3.512000   -2.963000
     44          6           0        0.764000   -3.966000   -4.284000
     45          6           0       -1.267000   -2.738000   -4.722000
     46          1           0       -2.085000   -1.635000   -3.069000
     47          1           0        1.554000   -3.815000   -2.292000
     48          1           0        1.562000   -4.620000   -4.627000
     49          1           0       -2.058000   -2.437000   -5.404000
     50          1           0       -0.239000   -3.933000   -6.190000
 ---------------------------------------------------------------------
                    Distance matrix (angstroms):
                    1          2          3          4          5
     1  H    0.000000
     2  C    1.084683   0.000000
     3  C    3.903353   2.819009   0.000000
     4  C    2.161290   1.390360   2.413403   0.000000
     5  C    2.154658   1.393962   2.434902   2.393778   0.000000
     6  C    3.405843   2.422085   1.400977   2.764003   1.399336
     7  C    3.430273   2.443981   1.387198   1.408657   2.796446
     8  H    2.481678   2.152895   3.416600   3.383030   1.087371
     9  H    4.299137   3.403818   2.156657   3.851782   2.155438
    10  H    4.981981   3.898237   1.081271   3.411384   3.398337
    11  C    2.863479   2.569183   3.666864   1.469621   3.799583
    12  C    4.115669   3.608062   3.718255   2.256950   4.616919
    13  H    4.992563   4.603257   4.741823   3.292376   5.673539
    14  C    4.466827   3.647051   2.649570   2.310436   4.247113
    15  H   10.251990   9.381314   7.393034   8.092465   9.681135
    16  C    9.382485   8.558161   6.770750   7.231690   8.966177
    17  C    7.394264   6.770619   5.814296   5.386614   7.526367
    18  C    8.093339   7.231365   5.386056   5.933661   7.590934
    19  C    9.682895   8.966591   7.526737   7.591880   9.552923
    20  C    8.784588   8.170883   7.115690   6.785914   8.912245
    21  C    6.981648   6.206615   4.790984   4.849726   6.758084
    22  H   10.742515  10.042459   8.602020   8.664521  10.638829
    23  H    9.278554   8.761589   7.961460   7.389637   9.607288
    24  H    6.836083   6.335862   5.821332   4.979075   7.238963
    25  C    7.866192   6.898660   4.643946   5.743596   7.000381
    26  C    6.562127   5.573965   3.314203   4.468187   5.653472
    27  H    6.321198   5.276752   2.736171   4.374865   5.114710
    28  C    5.794139   4.923360   3.317583   3.632899   5.344162
    29  C    8.969384   7.954811   5.461463   6.915231   7.859609
    30  C   11.319167  10.267403   7.597890   9.396380   9.916841
    31  C    9.905146   8.922158   6.547413   7.867179   8.869662
    32  C    9.320813   8.260676   5.554773   7.361470   7.958366
    33  C   10.518713   9.447168   6.691337   8.623637   9.031887
    34  C   11.039648  10.030517   7.535469   9.059079   9.843985
    35  H    9.880075   8.956375   6.815691   7.835941   9.049105
    36  H    8.818520   7.753152   5.013750   6.913507   7.396665
    37  H   10.942211   9.859674   7.051504   9.134096   9.322879
    38  H   11.816908  10.833438   8.428993   9.852748  10.682890
    39  H   12.280669  11.223569   8.530151  10.401613  10.804497
    40  C    3.054897   3.274767   5.034641   2.664142   4.656459
    41  C    4.839152   5.526567   7.751216   5.338952   6.889256
    42  C    3.046260   3.533478   5.656655   3.304797   4.878381
    43  C    4.057346   4.352658   6.019897   3.749751   5.707091
    44  C    4.846773   5.369442   7.318047   4.973805   6.739678
    45  C    4.039275   4.730500   7.022765   4.648041   6.054771
    46  H    2.837048   3.232277   5.291067   3.141032   4.442926
    47  H    4.558886   4.680319   5.960071   3.928970   5.941235
    48  H    5.764315   6.276670   8.132913   5.858522   7.618411
    49  H    4.523928   5.283400   7.654778   5.360638   6.515343
    50  H    5.754093   6.515965   8.819168   6.405825   7.854130
                    6          7          8          9         10
     6  C    0.000000
     7  C    2.405966   0.000000
     8  H    2.157859   3.883745   0.000000
     9  H    1.087932   3.390482   2.478436   0.000000
    10  H    2.136270   2.168965   4.285952   2.449321   0.000000
    11  C    4.220248   2.364378   4.708357   5.306597   4.528935
    12  C    4.657420   2.342868   5.634443   5.694987   4.319338
    13  H    5.727673   3.383928   6.674409   6.757816   5.254354
    14  C    3.859665   1.485109   5.331797   4.783585   3.013202
    15  H    8.783471   6.980556  10.741489   9.277168   6.835232
    16  C    8.171216   6.206930  10.042777   8.761694   6.336511
    17  C    7.116085   4.791892   8.602255   7.961573   5.822001
    18  C    6.785564   4.849524   8.664299   7.388940   4.978838
    19  C    8.912917   6.759063  10.639509   9.607653   7.239843
    20  C    8.449020   6.158255   9.991039   9.252624   7.018691
    21  C    6.157753   3.962717   7.845120   6.916724   4.651772
    22  H    9.991086   7.845413  11.725278  10.670457   8.285525
    23  H    9.252936   6.917660  10.670664  10.102487   7.944058
    24  H    7.018489   4.652388   8.285170   7.943525   6.012206
    25  C    6.005987   4.465560   8.028727   6.448589   4.026405
    26  C    4.687837   3.148279   6.686115   5.200175   2.794242
    27  H    4.005481   2.993406   6.082727   4.370828   2.034765
    28  C    4.687123   2.563778   6.428064   5.446922   3.235870
    29  C    6.720182   5.572014   8.822365   6.960313   4.652691
    30  C    8.641533   8.023379  10.751163   8.585585   6.643110
    31  C    7.774554   6.587880   9.822967   8.016405   5.798939
    32  C    6.690458   5.959599   8.845015   6.734812   4.581602
    33  C    7.712856   7.220441   9.852175   7.613810   5.675558
    34  C    8.669681   7.747045  10.738417   8.767386   6.696618
    35  H    8.071079   6.659211  10.030597   8.427599   6.204211
    36  H    6.109081   5.512473   8.261698   6.120433   4.005151
    37  H    7.957748   7.729340  10.074761   7.728542   5.988961
    38  H    9.547835   8.586197  11.571267   9.659104   7.636123
    39  H    9.504631   9.028295  11.594821   9.366433   7.554423
    40  C    5.377459   3.794929   5.371030   6.456022   5.952887
    41  C    7.880324   6.575350   7.315760   8.914611   8.716004
    42  C    5.785773   4.540658   5.420765   6.823149   6.637197
    43  C    6.412109   4.768270   6.383968   7.476420   6.877602
    44  C    7.593100   6.092129   7.283859   8.644683   8.216090
    45  C    7.072797   5.916051   6.457199   8.087039   8.016359
    46  H    5.334164   4.306960   4.952959   6.324984   6.272075
    47  H    6.481158   4.723945   6.685473   7.521515   6.715875
    48  H    8.441861   6.909346   8.152666   9.481161   8.990586
    49  H    7.594884   6.630292   6.801685   8.560789   8.662761
    50  H    8.899143   7.657962   8.204691   9.917245   9.793500
                   11         12         13         14         15
    11  C    0.000000
    12  C    1.346864   0.000000
    13  H    2.129371   1.075326   0.000000
    14  C    2.330219   1.463709   2.259998   0.000000
    15  H    7.865463   6.562416   6.321147   5.792825   0.000000
    16  C    6.898823   5.575098   5.277316   4.923221   1.084438
    17  C    4.644006   3.315240   2.736725   3.317901   3.903453
    18  C    5.743777   4.469360   4.375596   3.632436   2.160443
    19  C    7.001070   5.655153   5.116038   5.344653   2.155086
    20  C    6.005973   4.688767   4.006203   4.687056   3.405973
    21  C    4.465996   3.149767   2.994626   2.563427   3.429137
    22  H    8.028634   6.687014   6.083309   6.427847   2.482738
    23  H    6.448775   5.201257   4.371814   5.447264   4.299769
    24  H    4.026153   2.794859   2.035338   3.235943   4.982102
    25  C    5.916610   4.811488   5.025861   3.618025   2.862125
    26  C    4.810737   3.859853   4.314437   2.503764   4.115394
    27  H    5.025846   4.315040   4.955715   2.876259   4.992141
    28  C    3.618730   2.505279   2.876906   1.353067   4.465499
    29  C    7.245145   6.209030   6.466043   4.944020   3.053336
    30  C    9.900620   8.948005   9.246749   7.629649   4.838559
    31  C    8.107444   7.044813   7.188682   5.893293   3.045376
    32  C    7.890740   6.960754   7.350248   5.586170   4.056543
    33  C    9.217117   8.315146   8.706176   6.931019   4.845655
    34  C    9.403371   8.385814   8.570505   7.180954   4.038201
    35  H    7.914141   6.812704   6.831996   5.822624   2.835861
    36  H    7.520817   6.662425   7.136027   5.261310   4.557936
    37  H    9.830872   8.996823   9.454724   7.577964   5.763134
    38  H   10.137296   9.110625   9.229630   7.979189   4.523866
    39  H   10.949031  10.018502  10.327059   8.690022   5.752699
    40  C    1.464653   2.472148   2.745691   3.731865   8.969091
    41  C    4.269474   5.132252   5.031061   6.495381  11.318355
    42  C    2.484531   3.551005   3.819461   4.679843   9.904489
    43  C    2.491125   3.130801   3.071280   4.495966   9.320986
    44  C    3.772824   4.460552   4.278528   5.857420  10.518728
    45  C    3.768705   4.764908   4.843479   5.999847  11.038880
    46  H    2.706877   3.752040   4.174574   4.627396   9.879579
    47  H    2.717464   3.016396   2.878709   4.292825   8.818242
    48  H    4.645508   5.190583   4.895396   6.583757  10.942492
    49  H    4.638369   5.649647   5.754172   6.806387  11.816218
    50  H    5.356747   6.197826   6.035935   7.574807  12.280540
                   16         17         18         19         20
    16  C    0.000000
    17  C    2.819360   0.000000
    18  C    1.390972   2.414446   0.000000
    19  C    1.393913   2.435629   2.394872   0.000000
    20  C    2.421837   1.400773   2.764554   1.399701   0.000000
    21  C    2.443850   1.388801   1.408174   2.797409   2.406692
    22  H    2.152615   3.416543   3.383560   1.086674   2.157744
    23  H    3.403862   2.156554   3.852711   2.155794   1.088315
    24  H    3.898601   1.081287   3.412121   3.399327   2.136711
    25  C    2.569316   3.667122   1.468701   3.799799   4.219880
    26  C    3.609129   3.718812   2.257115   4.618052   4.657628
    27  H    4.604379   4.742905   3.292619   5.674857   5.728267
    28  C    3.647007   2.650299   2.309952   4.247691   3.859745
    29  C    3.274625   5.034598   2.662962   4.656292   5.376833
    30  C    5.527135   7.752077   5.338750   6.889693   7.880572
    31  C    3.533824   5.657265   3.304582   4.878803   5.785853
    32  C    4.353203   6.020327   3.748921   5.707515   6.412070
    33  C    5.369580   7.318288   4.972811   6.739662   7.592782
    34  C    4.730518   7.023202   4.647601   6.054769   7.072616
    35  H    3.232043   5.291216   3.140603   4.442988   5.333862
    36  H    4.680791   5.960471   3.928169   5.941468   6.480954
    37  H    6.276700   8.132994   5.857337   7.618230   8.441385
    38  H    5.284109   7.655818   5.360838   6.516194   7.595530
    39  H    6.515585   8.819112   6.404722   7.853594   8.898461
    40  C    7.955237   5.461670   6.915865   7.860557   6.720434
    41  C   10.267108   7.597435   9.396407   9.917218   8.641373
    42  C    8.922256   6.547401   7.867471   8.870425   7.774653
    43  C    8.261416   5.555274   7.362376   7.959692   6.691207
    44  C    9.447636   6.691508   8.624412   9.032905   7.713316
    45  C   10.030385   7.535183   9.059279   9.844488   8.669553
    46  H    8.956749   6.816043   7.836491   9.050141   8.071426
    47  H    7.753381   5.013658   6.913891   7.397366   6.109225
    48  H    9.860297   7.051800   9.135050   9.324010   7.958388
    49  H   10.833446   8.429038   9.852989  10.683735   9.548131
    50  H   11.223866   8.530168  10.402364  10.805338   9.504893
                   21         22         23         24         25
    21  C    0.000000
    22  H    3.884013   0.000000
    23  H    3.391688   2.478409   0.000000
    24  H    2.170236   4.286292   2.449888   0.000000
    25  C    2.362989   4.708179   5.306607   4.528826   0.000000
    26  C    2.341891   5.635092   5.695506   4.319191   1.347858
    27  H    3.383526   6.675213   6.758758   5.254813   2.130303
    28  C    1.484562   5.331690   4.784098   3.013663   2.329436
    29  C    3.793267   5.370691   6.455771   5.952506   1.464337
    30  C    6.574650   7.316161   8.915203   8.716570   4.270063
    31  C    4.539899   5.420993   6.823608   6.637632   2.484951
    32  C    4.766846   6.384386   7.476759   6.877521   2.490905
    33  C    6.090617   7.283881   8.644726   8.215900   3.772593
    34  C    5.915140   6.457072   8.087208   8.016644   3.769036
    35  H    4.306016   4.952780   6.325086   6.272208   2.706840
    36  H    4.722590   6.685609   7.521613   6.715662   2.717537
    37  H    6.907631   8.152581   9.481031   8.990163   4.645093
    38  H    6.629979   6.802537   8.561843   8.663711   4.638893
    39  H    7.656373   8.204189   9.916901   9.793177   5.356483
    40  C    5.573009   8.822499   6.960655   4.652690   7.245511
    41  C    8.023898  10.750788   8.585558   6.642734   9.900154
    42  C    6.588528   9.822905   8.016700   5.798867   8.107420
    43  C    5.960959   8.845642   6.735651   4.581949   7.891120
    44  C    7.221696   9.852478   7.614288   5.675672   9.217388
    45  C    7.747657  10.738080   8.767380   6.696355   9.403242
    46  H    6.660060  10.030762   8.428163   6.204504   7.914489
    47  H    5.513293   8.261763   6.120620   4.004796   7.520732
    48  H    7.730803  10.075237   7.729145   5.989225   9.831262
    49  H    8.586891  11.571312   9.659681   7.636321  10.137040
    50  H    9.029521  11.594861   9.366668   7.554488  10.949366
                   26         27         28         29         30
    26  C    0.000000
    27  H    1.075655   0.000000
    28  C    1.462509   2.259840   0.000000
    29  C    2.472664   2.746087   3.730695   0.000000
    30  C    5.133429   5.031763   6.495065   2.805736   0.000000
    31  C    3.551973   3.820017   4.679283   1.400615   2.417471
    32  C    3.131008   3.071010   4.494863   1.401181   2.417205
    33  C    4.460874   4.278417   5.856351   2.429061   1.393420
    34  C    4.765903   4.844101   5.999275   2.429129   1.393967
    35  H    3.752573   4.174837   4.626524   2.163195   3.397343
    36  H    3.016955   2.879181   4.292103   2.164622   3.396968
    37  H    5.190647   4.895035   6.582535   3.412413   2.153963
    38  H    5.650633   5.754527   6.806046   3.411474   2.154235
    39  H    6.198214   6.035922   7.573672   3.892157   1.086422
    40  C    6.208693   6.466419   4.945126   8.604760  11.284648
    41  C    8.946842   9.246210   7.629959  11.283774  13.981955
    42  C    7.043952   7.188401   5.893874   9.395877  11.979836
    43  C    6.960449   7.350586   5.587348   9.313609  12.068564
    44  C    8.314795   8.706505   6.932102  10.644317  13.402023
    45  C    8.384934   8.570252   7.181490  10.716427  13.322284
    46  H    6.812177   6.831978   5.823493   9.108334  11.572750
    47  H    6.661827   7.136169   5.262080   8.962547  11.742106
    48  H    8.996669   9.455256   7.579212  11.280467  14.066816
    49  H    9.109482   9.228907   7.979573  11.398571  13.928438
    50  H   10.018198  10.327438   8.691116  12.337334  15.038154
                   31         32         33         34         35
    31  C    0.000000
    32  C    2.413829   0.000000
    33  C    2.788460   1.396834   0.000000
    34  C    1.397132   2.788845   2.413188   0.000000
    35  H    1.087482   3.404537   3.875827   2.149033   0.000000
    36  H    3.405154   1.087810   2.148629   3.876520   4.312702
    37  H    3.875751   2.156047   1.087296   3.398927   4.963121
    38  H    2.155523   3.875278   3.398348   1.086441   2.469950
    39  H    3.402028   3.402333   2.153951   2.153375   4.292288
    40  C    9.396309   9.313588  10.644398  10.716957   9.108428
    41  C   11.979407  12.067683  13.401203  13.321920  11.572039
    42  C   10.079488  10.143755  11.420148  11.363167   9.734436
    43  C   10.144404  10.018570  11.389517  11.500532   9.845277
    44  C   11.420656  11.389467  12.757596  12.785638  11.060188
    45  C   11.363033  11.499873  12.785103  12.662254  10.961569
    46  H    9.734643   9.844887  11.059958  10.961949   9.401115
    47  H    9.862665   9.617197  11.007406  11.222709   9.615146
    48  H   12.077791  12.015076  13.399426  13.455919  11.716768
    49  H   11.977294  12.198583  13.443646  13.243245  11.546844
    50  H   13.005482  13.141061  14.474831  14.352023  12.565611
                   36         37         38         39         40
    36  H    0.000000
    37  H    2.469753   0.000000
    38  H    4.962959   4.297000   0.000000
    39  H    4.292530   2.481859   2.481081   0.000000
    40  C    8.962938  11.280414  11.399322  12.337365   0.000000
    41  C   11.741634  14.065869  13.928409  15.037245   2.804830
    42  C    9.862523  12.077132  11.977674  13.005023   1.400239
    43  C    9.617336  12.014890  12.199621  13.141109   1.401202
    44  C   11.007543  13.399228  13.444587  14.474792   2.428999
    45  C   11.222575  13.455270  13.243519  14.351478   2.428606
    46  H    9.615429  11.716426  11.547363  12.565422   2.163462
    47  H    9.163192  11.604093  11.964094  12.821515   2.164201
    48  H   11.604381  14.030152  14.124369  15.147658   3.412484
    49  H   11.963650  14.123281  13.778369  14.934410   3.411064
    50  H   12.821822  15.147555  14.935343  16.093519   3.892104
                   41         42         43         44         45
    41  C    0.000000
    42  C    2.416948   0.000000
    43  C    2.417042   2.413969   0.000000
    44  C    1.393834   2.788881   1.396874   0.000000
    45  C    1.393299   1.397199   2.788835   2.413460   0.000000
    46  H    3.396767   1.087654   3.405038   3.876414   2.148986
    47  H    3.396498   3.404624   1.087221   2.148247   3.875935
    48  H    2.154620   3.876154   2.156252   1.087276   3.399145
    49  H    2.154634   2.155385   3.875752   3.399401   1.086925
    50  H    1.087274   3.402714   3.402472   2.154051   2.154027
                   46         47         48         49         50
    46  H    0.000000
    47  H    4.312592   0.000000
    48  H    4.963688   2.469881   0.000000
    49  H    2.469040   4.962859   4.298095   0.000000
    50  H    4.292920   4.292223   2.481640   2.482856   0.000000
 Stoichiometry    C30H20
 Framework group  C1[X(C30H20)]
 Deg. of freedom   144
 Full point group                 C1      NOp   1
 Largest Abelian subgroup         C1      NOp   1
 Largest concise Abelian subgroup C1      NOp   1
                         Standard orientation:                         
 ---------------------------------------------------------------------
 Center     Atomic      Atomic             Coordinates (Angstroms)
 Number     Number       Type             X           Y           Z
 ---------------------------------------------------------------------
      1          1           0        4.357703   -2.700113   -0.109471
      2          6           0        3.279554   -2.748405   -0.218102
      3          6           0        0.486670   -2.865871   -0.582536
      4          6           0        2.499484   -1.598318   -0.174611
      5          6           0        2.649409   -3.973853   -0.428636
      6          6           0        1.263936   -4.030959   -0.616643
      7          6           0        1.100035   -1.648057   -0.327527
      8          1           0        3.239611   -4.886193   -0.469542
      9          1           0        0.786843   -4.989386   -0.810024
     10          1           0       -0.571463   -2.951325   -0.787957
     11          6           0        2.951075   -0.207164   -0.031285
     12          6           0        1.846984    0.561014   -0.101470
     13          1           0        1.869972    1.625626    0.048194
     14          6           0        0.632107   -0.240329   -0.257575
     15          1           0       -4.357390    2.699002   -0.109021
     16          6           0       -3.279561    2.748880   -0.217657
     17          6           0       -0.486373    2.866426   -0.582452
     18          6           0       -2.499840    1.597787   -0.174958
     19          6           0       -2.649923    3.974444   -0.428712
     20          6           0       -1.264031    4.031009   -0.616504
     21          6           0       -1.100868    1.647265   -0.327869
     22          1           0       -3.239484    4.886396   -0.469000
     23          1           0       -0.786832    4.989782   -0.810061
     24          1           0        0.571717    2.951197   -0.788463
     25          6           0       -2.950990    0.207453   -0.031711
     26          6           0       -1.846091   -0.561334   -0.101626
     27          1           0       -1.869612   -1.626238    0.048238
     28          6           0       -0.632760    0.240192   -0.257565
     29          6           0       -4.288932   -0.336992    0.208647
     30          6           0       -6.855656   -1.369938    0.674587
     31          6           0       -5.038890    0.092496    1.310838
     32          6           0       -4.839753   -1.291324   -0.656890
     33          6           0       -6.118057   -1.804404   -0.424869
     34          6           0       -6.317135   -0.421579    1.542778
     35          1           0       -4.627552    0.824584    2.001826
     36          1           0       -4.280691   -1.632597   -1.525403
     37          1           0       -6.538027   -2.541953   -1.104471
     38          1           0       -6.888870   -0.084396    2.402884
     39          1           0       -7.849545   -1.769491    0.855847
     40          6           0        4.289361    0.337385    0.208852
     41          6           0        6.855253    1.369775    0.675158
     42          6           0        5.038897   -0.092635    1.310645
     43          6           0        4.840300    1.290986   -0.657450
     44          6           0        6.118460    1.804463   -0.425276
     45          6           0        6.316998    0.421837    1.542900
     46          1           0        4.627766   -0.824676    2.002078
     47          1           0        4.280913    1.632832   -1.524789
     48          1           0        6.538581    2.542089   -1.104669
     49          1           0        6.888479    0.083290    2.403250
     50          1           0        7.849907    1.770076    0.855677
 ---------------------------------------------------------------------
 Rotational constants (GHZ):           0.2806637           0.0816938           0.0663394
 Leave Link  202 at Tue Jan 31 17:44:12 2023, MaxMem=  1342177280 cpu:               0.0 elap:               0.0
 (Enter /home/wangzhe/g16/l301.exe)
 Standard basis: 6-31G(d,p) (6D, 7F)
 Ernie: Thresh=  0.10000D-02 Tol=  0.10000D-05 Strict=F.
 There are   550 symmetry adapted cartesian basis functions of A   symmetry.
 There are   550 symmetry adapted basis functions of A   symmetry.
   550 basis functions,   980 primitive gaussians,   550 cartesian basis functions
   100 alpha electrons      100 beta electrons
       nuclear repulsion energy      2446.0287106221 Hartrees.
 IExCor= 4639 DFT=T Ex+Corr=wB97XD ExCW=0 ScaHFX=  1.000000
 ScaDFX=  1.000000  1.000000  1.000000  1.000000 ScalE2=  1.000000  1.000000
 IRadAn=      5 IRanWt=     -1 IRanGd=            0 ICorTp=0 IEmpDi=121
 HFx  wShort=  0.000000 wLong=  0.200000 cFull=  0.222036 cShort=  0.000000 cLong=  0.777964
 DFx  wShort=  0.000000 wLong=  0.200000 cFull=  0.000000 cShort=  0.000000 cLong=  1.000000
 NAtoms=   50 NActive=   50 NUniq=   50 SFac= 1.00D+00 NAtFMM=   60 NAOKFM=F Big=F
 Integral buffers will be    131072 words long.
 Raffenetti 2 integral format.
 Two-electron integral symmetry is turned on.
 R6Disp:  Grimme-D2 Dispersion energy=       -0.0381071895 Hartrees.
 Nuclear repulsion after empirical dispersion term =     2445.9906034327 Hartrees.
 Leave Link  301 at Tue Jan 31 17:44:12 2023, MaxMem=  1342177280 cpu:               0.1 elap:               0.0
 (Enter /home/wangzhe/g16/l302.exe)
 NPDir=0 NMtPBC=     1 NCelOv=     1 NCel=       1 NClECP=     1 NCelD=      1
         NCelK=      1 NCelE2=     1 NClLst=     1 CellRange=     0.0.
 One-electron integrals computed using PRISM.
 One-electron integral symmetry used in STVInt
 NBasis=   550 RedAO= T EigKep=  2.32D-04  NBF=   550
 NBsUse=   550 1.00D-06 EigRej= -1.00D+00 NBFU=   550
 Precomputing XC quadrature grid using
 IXCGrd= 4 IRadAn=           5 IRanWt=          -1 IRanGd=           0 AccXCQ= 0.00D+00.
 Generated NRdTot=       0 NPtTot=           0 NUsed=           0 NTot=          32
 NSgBfM=   528   528   528   528   528 MxSgAt=    50 MxSgA2=    50.
 Leave Link  302 at Tue Jan 31 17:44:12 2023, MaxMem=  1342177280 cpu:               3.3 elap:               0.4
 (Enter /home/wangzhe/g16/l303.exe)
 DipDrv:  MaxL=1.
 Leave Link  303 at Tue Jan 31 17:44:12 2023, MaxMem=  1342177280 cpu:               0.2 elap:               0.0
 (Enter /home/wangzhe/g16/l401.exe)
 ExpMin= 1.61D-01 ExpMax= 3.05D+03 ExpMxC= 4.57D+02 IAcc=3 IRadAn=         5 AccDes= 0.00D+00
 Harris functional with IExCor= 4639 and IRadAn=       5 diagonalized for initial guess.
 HarFok:  IExCor= 4639 AccDes= 0.00D+00 IRadAn=         5 IDoV= 1 UseB2=F ITyADJ=14
 ICtDFT=  3500011 ScaDFX=  1.000000  1.000000  1.000000  1.000000
 FoFCou: FMM=F IPFlag=           0 FMFlag=      100000 FMFlg1=           0
         NFxFlg=           0 DoJE=T BraDBF=F KetDBF=T FulRan=T
         wScrn=  0.000000 ICntrl=       500 IOpCl=  0 I1Cent=   200000004 NGrid=           0
         NMat0=    1 NMatS0=      1 NMatT0=    0 NMatD0=    1 NMtDS0=    0 NMtDT0=    0
 Petite list used in FoFCou.
 Harris En= -1102.37717887292    
 JPrj=0 DoOrth=F DoCkMO=F.
 Leave Link  401 at Tue Jan 31 17:44:14 2023, MaxMem=  1342177280 cpu:              16.9 elap:               2.1
 (Enter /home/wangzhe/g16/l502.exe)
 Integral symmetry usage will be decided dynamically.
 Closed shell SCF:
 Using DIIS extrapolation, IDIIS=  1040.
 NGot=  1342177280 LenX=  1341562234 LenY=  1341259184
 Requested convergence on RMS density matrix=1.00D-08 within 128 cycles.
 Requested convergence on MAX density matrix=1.00D-06.
 Requested convergence on             energy=1.00D-06.
 No special actions if energy rises.
 Fock matrices will be formed incrementally for  20 cycles.
 Integral accuracy reduced to 1.0D-05 until final iterations.

 Cycle   1  Pass 0  IDiag  1:
 FoFJK:  IHMeth= 1 ICntrl=       0 DoSepK=T KAlg= 0 I1Cent=           0 FoldK=F
 IRaf=         1 NMat=       1 IRICut=       1 DoRegI=T DoRafI=F ISym2E= 0 IDoP0=0 IntGTp=1.
 FoFCou: FMM=F IPFlag=           0 FMFlag=      100000 FMFlg1=           0
         NFxFlg=           0 DoJE=T BraDBF=F KetDBF=F FulRan=T
         wScrn=  0.000000 ICntrl=       500 IOpCl=  0 I1Cent=           0 NGrid=           0
         NMat0=    1 NMatS0=      1 NMatT0=    0 NMatD0=    1 NMtDS0=    0 NMtDT0=    0
 Symmetry not used in FoFCou.
 E= -1154.64927925355    
 DIIS: error= 6.70D-02 at cycle   1 NSaved=   1.
 NSaved= 1 IEnMin= 1 EnMin= -1154.64927925355     IErMin= 1 ErrMin= 6.70D-02
 ErrMax= 6.70D-02  0.00D+00 EMaxC= 1.00D-01 BMatC= 1.06D+00 BMatP= 1.06D+00
 IDIUse=3 WtCom= 3.30D-01 WtEn= 6.70D-01
 Coeff-Com:  0.100D+01
 Coeff-En:   0.100D+01
 Coeff:      0.100D+01
 Gap=     0.219 Goal=   None    Shift=    0.000
 GapD=    0.219 DampG=1.000 DampE=0.500 DampFc=0.5000 IDamp=-1.
 Damping current iteration by 5.00D-01
 RMSDP=1.63D-03 MaxDP=5.06D-02              OVMax= 5.39D-02

 Cycle   2  Pass 0  IDiag  1:
 RMSU=  8.12D-04    CP:  9.95D-01
 E= -1154.75580378620     Delta-E=       -0.106524532654 Rises=F Damp=T
 DIIS: error= 3.38D-02 at cycle   2 NSaved=   2.
 NSaved= 2 IEnMin= 2 EnMin= -1154.75580378620     IErMin= 2 ErrMin= 3.38D-02
 ErrMax= 3.38D-02  0.00D+00 EMaxC= 1.00D-01 BMatC= 2.56D-01 BMatP= 1.06D+00
 IDIUse=3 WtCom= 6.62D-01 WtEn= 3.38D-01
 Coeff-Com: -0.905D+00 0.191D+01
 Coeff-En:   0.000D+00 0.100D+01
 Coeff:     -0.599D+00 0.160D+01
 Gap=     0.236 Goal=   None    Shift=    0.000
 RMSDP=8.89D-04 MaxDP=2.85D-02 DE=-1.07D-01 OVMax= 5.33D-02

 Cycle   3  Pass 0  IDiag  1:
 RMSU=  5.09D-04    CP:  9.89D-01  1.89D+00
 E= -1154.85310246734     Delta-E=       -0.097298681137 Rises=F Damp=F
 DIIS: error= 3.89D-03 at cycle   3 NSaved=   3.
 NSaved= 3 IEnMin= 3 EnMin= -1154.85310246734     IErMin= 3 ErrMin= 3.89D-03
 ErrMax= 3.89D-03  0.00D+00 EMaxC= 1.00D-01 BMatC= 9.29D-03 BMatP= 2.56D-01
 IDIUse=3 WtCom= 9.61D-01 WtEn= 3.89D-02
 Coeff-Com: -0.368D+00 0.750D+00 0.618D+00
 Coeff-En:   0.000D+00 0.000D+00 0.100D+01
 Coeff:     -0.354D+00 0.721D+00 0.633D+00
 Gap=     0.232 Goal=   None    Shift=    0.000
 RMSDP=2.48D-04 MaxDP=7.06D-03 DE=-9.73D-02 OVMax= 2.43D-02

 Cycle   4  Pass 0  IDiag  1:
 RMSU=  1.63D-04    CP:  9.87D-01  1.99D+00  6.74D-01
 E= -1154.86230561258     Delta-E=       -0.009203145240 Rises=F Damp=F
 DIIS: error= 1.10D-03 at cycle   4 NSaved=   4.
 NSaved= 4 IEnMin= 4 EnMin= -1154.86230561258     IErMin= 4 ErrMin= 1.10D-03
 ErrMax= 1.10D-03  0.00D+00 EMaxC= 1.00D-01 BMatC= 5.20D-04 BMatP= 9.29D-03
 IDIUse=3 WtCom= 9.89D-01 WtEn= 1.10D-02
 Coeff-Com: -0.137D+00 0.279D+00 0.298D+00 0.560D+00
 Coeff-En:   0.000D+00 0.000D+00 0.000D+00 0.100D+01
 Coeff:     -0.136D+00 0.276D+00 0.295D+00 0.565D+00
 Gap=     0.231 Goal=   None    Shift=    0.000
 RMSDP=5.80D-05 MaxDP=1.96D-03 DE=-9.20D-03 OVMax= 7.65D-03

 Cycle   5  Pass 0  IDiag  1:
 RMSU=  3.84D-05    CP:  9.87D-01  1.99D+00  7.26D-01  7.86D-01
 E= -1154.86292462128     Delta-E=       -0.000619008702 Rises=F Damp=F
 DIIS: error= 2.37D-04 at cycle   5 NSaved=   5.
 NSaved= 5 IEnMin= 5 EnMin= -1154.86292462128     IErMin= 5 ErrMin= 2.37D-04
 ErrMax= 2.37D-04  0.00D+00 EMaxC= 1.00D-01 BMatC= 1.66D-05 BMatP= 5.20D-04
 IDIUse=3 WtCom= 9.98D-01 WtEn= 2.37D-03
 Coeff-Com:  0.195D-01-0.400D-01-0.201D-01 0.894D-01 0.951D+00
 Coeff-En:   0.000D+00 0.000D+00 0.000D+00 0.000D+00 0.100D+01
 Coeff:      0.194D-01-0.399D-01-0.200D-01 0.892D-01 0.951D+00
 Gap=     0.232 Goal=   None    Shift=    0.000
 RMSDP=1.92D-05 MaxDP=6.77D-04 DE=-6.19D-04 OVMax= 3.78D-03

 Cycle   6  Pass 0  IDiag  1:
 RMSU=  1.15D-05    CP:  9.87D-01  2.00D+00  7.37D-01  8.57D-01  1.11D+00
 E= -1154.86296881147     Delta-E=       -0.000044190191 Rises=F Damp=F
 DIIS: error= 1.13D-04 at cycle   6 NSaved=   6.
 NSaved= 6 IEnMin= 6 EnMin= -1154.86296881147     IErMin= 6 ErrMin= 1.13D-04
 ErrMax= 1.13D-04  0.00D+00 EMaxC= 1.00D-01 BMatC= 3.50D-06 BMatP= 1.66D-05
 IDIUse=3 WtCom= 9.99D-01 WtEn= 1.13D-03
 Coeff-Com:  0.240D-01-0.490D-01-0.435D-01-0.332D-01 0.347D+00 0.755D+00
 Coeff-En:   0.000D+00 0.000D+00 0.000D+00 0.000D+00 0.000D+00 0.100D+01
 Coeff:      0.239D-01-0.489D-01-0.434D-01-0.332D-01 0.346D+00 0.755D+00
 Gap=     0.233 Goal=   None    Shift=    0.000
 RMSDP=7.33D-06 MaxDP=3.86D-04 DE=-4.42D-05 OVMax= 1.84D-03

 Initial convergence to 1.0D-05 achieved.  Increase integral accuracy.
 Cycle   7  Pass 1  IDiag  1:
 E= -1154.86307889013     Delta-E=       -0.000110078661 Rises=F Damp=F
 DIIS: error= 3.28D-04 at cycle   1 NSaved=   1.
 NSaved= 1 IEnMin= 1 EnMin= -1154.86307889013     IErMin= 1 ErrMin= 3.28D-04
 ErrMax= 3.28D-04  0.00D+00 EMaxC= 1.00D-01 BMatC= 8.74D-06 BMatP= 8.74D-06
 IDIUse=3 WtCom= 9.97D-01 WtEn= 3.28D-03
 Coeff-Com:  0.100D+01
 Coeff-En:   0.100D+01
 Coeff:      0.100D+01
 Gap=     0.233 Goal=   None    Shift=    0.000
 RMSDP=7.33D-06 MaxDP=3.86D-04 DE=-1.10D-04 OVMax= 1.04D-03

 Cycle   8  Pass 1  IDiag  1:
 RMSU=  1.39D-04    CP:  9.99D-01
 E= -1154.86308794431     Delta-E=       -0.000009054176 Rises=F Damp=F
 DIIS: error= 2.92D-05 at cycle   2 NSaved=   2.
 NSaved= 2 IEnMin= 2 EnMin= -1154.86308794431     IErMin= 2 ErrMin= 2.92D-05
 ErrMax= 2.92D-05  0.00D+00 EMaxC= 1.00D-01 BMatC= 2.52D-07 BMatP= 8.74D-06
 IDIUse=1 WtCom= 1.00D+00 WtEn= 0.00D+00
 Coeff-Com: -0.749D-02 0.101D+01
 Coeff:     -0.749D-02 0.101D+01
 Gap=     0.233 Goal=   None    Shift=    0.000
 RMSDP=7.09D-06 MaxDP=1.86D-04 DE=-9.05D-06 OVMax= 5.37D-04

 Cycle   9  Pass 1  IDiag  1:
 RMSU=  2.86D-06    CP:  9.99D-01  1.05D+00
 E= -1154.86308823189     Delta-E=       -0.000000287579 Rises=F Damp=F
 DIIS: error= 2.61D-05 at cycle   3 NSaved=   3.
 NSaved= 3 IEnMin= 3 EnMin= -1154.86308823189     IErMin= 3 ErrMin= 2.61D-05
 ErrMax= 2.61D-05  0.00D+00 EMaxC= 1.00D-01 BMatC= 3.20D-07 BMatP= 2.52D-07
 IDIUse=1 WtCom= 1.00D+00 WtEn= 0.00D+00
 Coeff-Com: -0.295D-01 0.552D+00 0.477D+00
 Coeff:     -0.295D-01 0.552D+00 0.477D+00
 Gap=     0.233 Goal=   None    Shift=    0.000
 RMSDP=1.49D-06 MaxDP=7.48D-05 DE=-2.88D-07 OVMax= 2.08D-04

 Cycle  10  Pass 1  IDiag  1:
 RMSU=  1.12D-06    CP:  9.99D-01  1.05D+00  7.13D-01
 E= -1154.86308860743     Delta-E=       -0.000000375539 Rises=F Damp=F
 DIIS: error= 1.24D-05 at cycle   4 NSaved=   4.
 NSaved= 4 IEnMin= 4 EnMin= -1154.86308860743     IErMin= 4 ErrMin= 1.24D-05
 ErrMax= 1.24D-05  0.00D+00 EMaxC= 1.00D-01 BMatC= 1.22D-08 BMatP= 2.52D-07
 IDIUse=1 WtCom= 1.00D+00 WtEn= 0.00D+00
 Coeff-Com: -0.165D-02-0.576D-01 0.394D-01 0.102D+01
 Coeff:     -0.165D-02-0.576D-01 0.394D-01 0.102D+01
 Gap=     0.233 Goal=   None    Shift=    0.000
 RMSDP=6.40D-07 MaxDP=2.83D-05 DE=-3.76D-07 OVMax= 2.37D-04

 Cycle  11  Pass 1  IDiag  1:
 RMSU=  4.22D-07    CP:  9.99D-01  1.05D+00  8.44D-01  1.26D+00
 E= -1154.86308867066     Delta-E=       -0.000000063236 Rises=F Damp=F
 DIIS: error= 7.35D-06 at cycle   5 NSaved=   5.
 NSaved= 5 IEnMin= 5 EnMin= -1154.86308867066     IErMin= 5 ErrMin= 7.35D-06
 ErrMax= 7.35D-06  0.00D+00 EMaxC= 1.00D-01 BMatC= 5.38D-09 BMatP= 1.22D-08
 IDIUse=1 WtCom= 1.00D+00 WtEn= 0.00D+00
 Coeff-Com:  0.108D-01-0.249D+00-0.160D+00 0.559D+00 0.840D+00
 Coeff:      0.108D-01-0.249D+00-0.160D+00 0.559D+00 0.840D+00
 Gap=     0.233 Goal=   None    Shift=    0.000
 RMSDP=4.54D-07 MaxDP=2.14D-05 DE=-6.32D-08 OVMax= 1.93D-04

 Cycle  12  Pass 1  IDiag  1:
 RMSU=  2.36D-07    CP:  9.99D-01  1.05D+00  9.15D-01  1.53D+00  1.32D+00
 E= -1154.86308869371     Delta-E=       -0.000000023051 Rises=F Damp=F
 DIIS: error= 1.46D-06 at cycle   6 NSaved=   6.
 NSaved= 6 IEnMin= 6 EnMin= -1154.86308869371     IErMin= 6 ErrMin= 1.46D-06
 ErrMax= 1.46D-06  0.00D+00 EMaxC= 1.00D-01 BMatC= 2.50D-10 BMatP= 5.38D-09
 IDIUse=1 WtCom= 1.00D+00 WtEn= 0.00D+00
 Coeff-Com:  0.147D-02-0.268D-01-0.207D-01-0.275D-01 0.121D+00 0.952D+00
 Coeff:      0.147D-02-0.268D-01-0.207D-01-0.275D-01 0.121D+00 0.952D+00
 Gap=     0.233 Goal=   None    Shift=    0.000
 RMSDP=1.11D-07 MaxDP=3.52D-06 DE=-2.31D-08 OVMax= 4.17D-05

 Cycle  13  Pass 1  IDiag  1:
 RMSU=  5.21D-08    CP:  9.99D-01  1.05D+00  9.29D-01  1.56D+00  1.48D+00
                    CP:  1.15D+00
 E= -1154.86308869487     Delta-E=       -0.000000001155 Rises=F Damp=F
 DIIS: error= 5.63D-07 at cycle   7 NSaved=   7.
 NSaved= 7 IEnMin= 7 EnMin= -1154.86308869487     IErMin= 7 ErrMin= 5.63D-07
 ErrMax= 5.63D-07  0.00D+00 EMaxC= 1.00D-01 BMatC= 9.36D-11 BMatP= 2.50D-10
 IDIUse=1 WtCom= 1.00D+00 WtEn= 0.00D+00
 Coeff-Com: -0.117D-02 0.307D-01 0.188D-01-0.113D+00-0.855D-01 0.458D+00
 Coeff-Com:  0.692D+00
 Coeff:     -0.117D-02 0.307D-01 0.188D-01-0.113D+00-0.855D-01 0.458D+00
 Coeff:      0.692D+00
 Gap=     0.233 Goal=   None    Shift=    0.000
 RMSDP=4.01D-08 MaxDP=1.71D-06 DE=-1.16D-09 OVMax= 1.31D-05

 Cycle  14  Pass 1  IDiag  1:
 RMSU=  2.65D-08    CP:  9.99D-01  1.05D+00  9.32D-01  1.56D+00  1.52D+00
                    CP:  1.25D+00  9.72D-01
 E= -1154.86308869513     Delta-E=       -0.000000000257 Rises=F Damp=F
 DIIS: error= 1.83D-07 at cycle   8 NSaved=   8.
 NSaved= 8 IEnMin= 8 EnMin= -1154.86308869513     IErMin= 8 ErrMin= 1.83D-07
 ErrMax= 1.83D-07  0.00D+00 EMaxC= 1.00D-01 BMatC= 7.48D-12 BMatP= 9.36D-11
 IDIUse=1 WtCom= 1.00D+00 WtEn= 0.00D+00
 Coeff-Com: -0.467D-03 0.103D-01 0.735D-02-0.175D-01-0.346D-01-0.681D-01
 Coeff-Com:  0.109D+00 0.994D+00
 Coeff:     -0.467D-03 0.103D-01 0.735D-02-0.175D-01-0.346D-01-0.681D-01
 Coeff:      0.109D+00 0.994D+00
 Gap=     0.233 Goal=   None    Shift=    0.000
 RMSDP=1.71D-08 MaxDP=7.12D-07 DE=-2.57D-10 OVMax= 4.52D-06

 Cycle  15  Pass 1  IDiag  1:
 RMSU=  9.11D-09    CP:  9.99D-01  1.05D+00  9.33D-01  1.57D+00  1.53D+00
                    CP:  1.27D+00  1.16D+00  1.26D+00
 E= -1154.86308869516     Delta-E=       -0.000000000031 Rises=F Damp=F
 DIIS: error= 8.05D-08 at cycle   9 NSaved=   9.
 NSaved= 9 IEnMin= 9 EnMin= -1154.86308869516     IErMin= 9 ErrMin= 8.05D-08
 ErrMax= 8.05D-08  0.00D+00 EMaxC= 1.00D-01 BMatC= 2.77D-12 BMatP= 7.48D-12
 IDIUse=1 WtCom= 1.00D+00 WtEn= 0.00D+00
 Coeff-Com:  0.482D-05-0.108D-02-0.566D-04 0.137D-01 0.440D-03-0.121D+00
 Coeff-Com: -0.848D-01 0.467D+00 0.725D+00
 Coeff:      0.482D-05-0.108D-02-0.566D-04 0.137D-01 0.440D-03-0.121D+00
 Coeff:     -0.848D-01 0.467D+00 0.725D+00
 Gap=     0.233 Goal=   None    Shift=    0.000
 RMSDP=7.21D-09 MaxDP=2.52D-07 DE=-3.09D-11 OVMax= 1.46D-06

 SCF Done:  E(RwB97XD) =  -1154.86308870     A.U. after   15 cycles
            NFock= 15  Conv=0.72D-08     -V/T= 2.0095
 KE= 1.143976539058D+03 PE=-7.566198498365D+03 EE= 2.821368267179D+03
 Leave Link  502 at Tue Jan 31 17:45:47 2023, MaxMem=  1342177280 cpu:             741.8 elap:              93.0
 (Enter /home/wangzhe/g16/l601.exe)
 Copying SCF densities to generalized density rwf, IOpCl= 0 IROHF=0.

 **********************************************************************

            Population analysis using the SCF Density.

 **********************************************************************

 Orbital symmetries:
       Occupied  (A) (A) (A) (A) (A) (A) (A) (A) (A) (A) (A) (A)
                 (A) (A) (A) (A) (A) (A) (A) (A) (A) (A) (A) (A)
                 (A) (A) (A) (A) (A) (A) (A) (A) (A) (A) (A) (A)
                 (A) (A) (A) (A) (A) (A) (A) (A) (A) (A) (A) (A)
                 (A) (A) (A) (A) (A) (A) (A) (A) (A) (A) (A) (A)
                 (A) (A) (A) (A) (A) (A) (A) (A) (A) (A) (A) (A)
                 (A) (A) (A) (A) (A) (A) (A) (A) (A) (A) (A) (A)
                 (A) (A) (A) (A) (A) (A) (A) (A) (A) (A) (A) (A)
                 (A) (A) (A) (A)
       Virtual   (A) (A) (A) (A) (A) (A) (A) (A) (A) (A) (A) (A)
                 (A) (A) (A) (A) (A) (A) (A) (A) (A) (A) (A) (A)
                 (A) (A) (A) (A) (A) (A) (A) (A) (A) (A) (A) (A)
                 (A) (A) (A) (A) (A) (A) (A) (A) (A) (A) (A) (A)
                 (A) (A) (A) (A) (A) (A) (A) (A) (A) (A) (A) (A)
                 (A) (A) (A) (A) (A) (A) (A) (A) (A) (A) (A) (A)
                 (A) (A) (A) (A) (A) (A) (A) (A) (A) (A) (A) (A)
                 (A) (A) (A) (A) (A) (A) (A) (A) (A) (A) (A) (A)
                 (A) (A) (A) (A) (A) (A) (A) (A) (A) (A) (A) (A)
                 (A) (A) (A) (A) (A) (A) (A) (A) (A) (A) (A) (A)
                 (A) (A) (A) (A) (A) (A) (A) (A) (A) (A) (A) (A)
                 (A) (A) (A) (A) (A) (A) (A) (A) (A) (A) (A) (A)
                 (A) (A) (A) (A) (A) (A) (A) (A) (A) (A) (A) (A)
                 (A) (A) (A) (A) (A) (A) (A) (A) (A) (A) (A) (A)
                 (A) (A) (A) (A) (A) (A) (A) (A) (A) (A) (A) (A)
[...]
 293,-0.00000274,0.00000956,-0.00000553,-0.00000222,-0.00000128,0.00000
 364,0.00000154,0.00000084,0.00000242,-0.00000053,-0.00000205,0.0000002
 7,-0.00000297,-0.00000178,0.00000035,0.00000204,0.00000157,-0.00000211
 ,-0.00000137,0.00000312,-0.00000064,0.00000045,0.00000238,0.01418147,-
 0.00751607,0.01668100,0.00283993,0.00299585,-0.00328407,0.00521857,-0.
 00111660,-0.00313848,0.08776279,-0.11345465,0.08385141,-0.00633616,0.0
 0825393,-0.00740939,-0.00018173,-0.00069361,-0.00093576,0.00084740,-0.
 00041426,0.00098081,-0.09927977,0.11358648,0.00000085,-0.00000042,-0.0
 0001194,0.00000415,-0.00005798,0.00007274,-0.00001543,-0.00004948,-0.0
 0001127,0.00010966,0.00015988,0.00022351,0.00000302,0.00002665,0.00004
 804,0.00000573,0.00005536,-0.00002689,-0.00002830,0.00016571,0.0000127
 4,-0.00000169,0.00001377,0.00000031,0.00000022,0.00000635,0.00000223,0
 .00000092,0.00000337,0.00001056,0.00120287,-0.00019504,0.00031621,0.00
 028432,-0.00015651,-0.00037221,0.00043718,0.00003591,-0.00032363,-0.00
 011062,-0.00009943,-0.00008204,-0.00000138,-0.00000167,0.00000357,0.00
 000989,-0.00005040,-0.00000021,0.00002284,-0.00005866,-0.00004172,-0.0
 0001733,0.00006849,0.00001942,-0.00001042,0.00000220,0.00003821,-0.000
 01299,0.00004345,-0.00000127,-0.00000664,0.00005618,-0.00000350,-0.000
 00093,-0.00000462,0.00000860,0.00000311,-0.00001214,0.00000028,-0.0000
 0264,0.00003306,0.00002047,0.00000770,-0.00004354,0.00001413,0.0000233
 0,-0.00003310,-0.00001391,0.00000085,0.00000623,-0.00000130,-0.0000096
 5,0.00001380,0.00004800,0.00000102,-0.00000462,-0.00001422,-0.00000234
 ,0.00000195,0.00000662,-0.00000299,0.00001070,0.00000915,-0.00000359,-
 0.00000506,0.00001190,-0.00000429,-0.00000270,-0.00000072,0.00000481,0
 .00000202,0.00000087,0.00000305,0.00000085,-0.00000287,-0.00000102,-0.
 00000198,-0.00000334,-0.00000028,0.00000303,0.00000197,-0.00000243,-0.
 00000110,0.00000260,-0.00000117,0.00000091,0.00000243,0.00566239,-0.00
 537290,0.00837447,-0.00018121,-0.00390964,-0.00422966,0.00043483,-0.00
 254889,0.00044396,-0.11466099,0.08490136,-0.18186483,-0.01814460,0.016
 36861,-0.01380162,0.00057559,-0.00069177,-0.00018365,0.00035073,-0.000
 30296,0.00038294,0.12386294,-0.08982419,0.19127460,-0.00001069,-0.0000
 2633,-0.00002402,-0.00001518,-0.00005457,0.00001998,0.00000572,-0.0000
 2250,0.00000246,-0.00003213,0.00005865,0.00006173,0.00000650,-0.000003
 30,0.00001349,-0.00000007,0.00001110,-0.00000827,-0.00001618,0.0000424
 0,-0.00000970,-0.00000009,0.00000048,-0.00000099,-0.00000106,0.0000020
 4,0.00000166,0.00000189,0.00000063,0.00000333,0.00020892,-0.00010773,-
 0.00004050,-0.00007031,0.00002556,0.00001097,-0.00000495,0.00003356,0.
 00002268,0.00001176,-0.00003859,0.00004718,0.00000002,-0.00000031,0.00
 000117,0.00000699,-0.00003180,-0.00000347,-0.00000149,-0.00003226,0.00
 000325,-0.00000832,0.00004032,0.00001117,-0.00000977,0.00000544,0.0000
 2147,-0.00000385,0.00001752,-0.00001525,-0.00000234,0.00004074,-0.0000
 1902,0.00000112,-0.00000193,0.00000305,0.00000643,-0.00000535,0.000001
 79,0.00000463,0.00001242,-0.00000129,0.00000649,-0.00001816,-0.0000007
 3,-0.00000517,-0.00002313,-0.00000172,0.00000188,0.00000256,-0.0000005
 7,0.00001208,0.00001496,-0.00001503,0.00000088,-0.00000231,-0.00000314
 ,-0.00000136,0.00000075,0.00000318,-0.00000043,0.00000737,0.00000403,-
 0.00000103,-0.00000311,0.00000478,-0.00000297,-0.00000146,-0.00000024,
 0.00000226,0.00000109,0.00000070,0.00000105,-0.00000015,-0.00000125,-0
 .00000038,-0.00000124,-0.00000102,-0.00000007,0.00000111,0.00000057,-0
 .00000131,-0.00000064,0.00000172,-0.00000042,0.00000037,0.00000114,0.0
 0506569,0.00258240,-0.00181342,-0.00534489,0.01337604,0.00776306,-0.00
 030456,-0.00055008,-0.00051729,0.00384442,-0.00136866,-0.00168470,-0.1
 3467027,0.13386845,0.04086366,0.00274153,0.00420856,-0.00403587,-0.000
 67851,-0.00054065,0.00026437,-0.00210322,-0.00226681,0.00104351,0.1337
 1304,0.00000945,0.00000366,-0.00001978,-0.00002678,0.00000277,0.000019
 75,0.00000175,0.00005522,-0.00001136,0.00000642,0.00007102,-0.00009799
 ,0.00000003,-0.00001806,-0.00003915,-0.00000471,-0.00003152,0.00003108
 ,-0.00001360,-0.00014929,-0.00002214,0.00000277,-0.00000989,0.00000048
 ,0.00000097,-0.00000557,-0.00000353,0.00000132,-0.00000373,-0.00000699
 ,0.00036251,-0.00022981,0.00031032,-0.00009861,-0.00007762,-0.00008546
 ,0.00001084,0.00000349,0.00002518,0.00000473,0.00012762,0.00004508,0.0
 0000144,0.00000112,-0.00000326,-0.00001397,0.00005419,0.00000488,-0.00
 001153,0.00005298,-0.00000470,0.00002191,-0.00007729,-0.00002661,0.000
 01473,-0.00001412,-0.00003881,-0.00000618,-0.00002858,0.00002691,0.000
 00566,-0.00008962,0.00003480,0.00000102,0.00000446,-0.00000339,-0.0000
 0067,0.00000621,0.00000219,0.00001050,-0.00000991,0.00000370,-0.000012
 74,0.00004960,-0.00001078,-0.00000123,0.00003831,0.00002669,0.00000094
 ,-0.00000631,-0.00000112,-0.00000955,-0.00001214,-0.00004220,-0.000004
 37,0.00000369,0.00001366,0.00000263,-0.00000216,-0.00000724,0.00000299
 ,-0.00001086,-0.00000856,0.00000449,0.00000606,-0.00001334,0.00000512,
 0.00000282,0.00000116,-0.00000563,-0.00000289,-0.00000109,-0.00000288,
 -0.00000120,0.00000306,0.00000059,0.00000213,0.00000338,0.00000017,-0.
 00000338,-0.00000231,0.00000243,0.00000129,-0.00000249,0.00000122,-0.0
 0000094,-0.00000269,0.00241996,0.00372764,-0.00262313,0.00682067,-0.00
 752985,-0.00688430,-0.00062230,0.00025343,0.00034458,0.00549609,-0.003
 50748,0.00003476,0.13360713,-0.22669747,-0.06685837,0.00433680,0.00264
 128,0.00199998,-0.00051377,-0.00049869,0.00013266,-0.00232535,-0.00114
 939,0.00047263,-0.14770230,0.23461797,-0.00000341,0.00000965,0.0000137
 7,0.00001494,0.00006766,-0.00003159,-0.00000026,0.00006633,-0.00003624
 ,0.00002375,0.00003578,-0.00036737,-0.00000081,-0.00002735,-0.00002689
 ,-0.00000517,-0.00002813,0.00003192,-0.00003945,-0.00020095,-0.0000311
 3,0.00000025,-0.00001028,-0.00000186,0.00000018,-0.00000448,-0.0000012
 5,0.00000237,-0.00001241,-0.00001080,0.00073970,-0.00111005,0.00030700
 ,-0.00011844,-0.00004397,-0.00003324,0.00005416,-0.00000168,-0.0000221
 1,0.00000081,0.00011795,-0.00002679,0.00000074,0.00000135,-0.00000110,
 -0.00001679,0.00006046,0.00000834,-0.00000232,0.00006729,-0.00002654,0
 .00001962,-0.00007940,-0.00002423,0.00001651,-0.00001011,-0.00004422,-
 0.00000387,-0.00003497,0.00003417,0.00000555,-0.00009800,0.00004923,0.
 00000027,0.00000311,-0.00000285,-0.00000401,0.00001406,-0.00000405,0.0
 0000802,-0.00002448,0.00000353,-0.00000993,0.00004169,-0.00001069,0.00
 000124,0.00004881,0.00002217,-0.00000159,-0.00000522,-0.00000090,-0.00
 001356,-0.00002697,-0.00002518,-0.00000305,0.00000537,0.00000703,0.000
 00241,-0.00000166,-0.00000606,0.00000077,-0.00001143,-0.00000724,0.000
 00303,0.00000590,-0.00000985,0.00000471,0.00000184,0.00000099,-0.00000
 396,-0.00000133,-0.00000161,-0.00000076,-0.00000031,0.00000208,0.00000
 028,0.00000145,0.00000211,0.00000030,-0.00000218,-0.00000153,0.0000019
 2,0.00000077,-0.00000236,0.00000072,-0.00000051,-0.00000162,-0.0018888
 6,-0.00194352,-0.00499076,-0.01216301,0.01768336,0.01067229,-0.0004409
 7,0.00039343,-0.00116537,0.01818153,-0.02449106,-0.00310755,0.04102971
 ,-0.06675876,-0.08307097,-0.00370673,0.00124860,-0.00234825,0.00025176
 ,0.00011547,0.00006865,0.00060778,0.00093388,0.00051369,-0.04293298,0.
 07278455,0.08280348,0.00003078,0.00003607,-0.00003288,-0.00003860,-0.0
 0005194,-0.00006959,-0.00000196,0.00000935,0.00000564,-0.00001875,0.00
 003068,-0.00000198,-0.00001260,0.00001318,-0.00000181,-0.00000011,-0.0
 0001676,-0.00000382,0.00000400,-0.00005535,-0.00000916,-0.00000086,-0.
 00001437,-0.00000446,0.00000357,-0.00000322,-0.00000175,0.00000129,-0.
 00000113,-0.00000185,0.00018263,0.00017709,-0.00005944,-0.00008938,-0.
 00011126,-0.00002766,-0.00002770,-0.00001367,0.00001058,-0.00000010,0.
 00003849,-0.00003622,0.00000067,0.00000058,-0.00000191,-0.00000499,0.0
 0002054,0.00000073,-0.00000753,0.00001743,0.00000365,0.00000736,-0.000
 02723,-0.00000612,0.00000570,-0.00000724,-0.00001373,-0.00000211,-0.00
 001078,0.00000769,0.00000282,-0.00002342,0.00000678,0.00000051,0.00000
 205,-0.00000153,0.00000006,0.00000029,0.00000199,0.00000521,-0.0000018
 5,0.00000014,-0.00000683,0.00001394,0.00000303,0.00000303,0.00001339,-
 0.00000589,0.00000166,-0.00000266,-0.00000074,-0.00000020,-0.00002264,
 0.00001506,-0.00000153,0.00000041,0.00000512,0.00000106,-0.00000106,-0
 .00000304,0.00000162,-0.00000455,-0.00000304,0.00000233,0.00000315,-0.
 00000615,0.00000259,0.00000160,0.00000043,-0.00000269,-0.00000199,-0.0
 0000048,-0.00000190,-0.00000081,0.00000150,0.00000009,0.00000133,0.000
 00181,-0.00000011,-0.00000180,-0.00000134,0.00000107,0.00000072,-0.000
 00098,0.00000064,-0.00000045,-0.00000156,0.00516512,0.00277871,-0.0004
 0891,-0.00533744,0.00594554,-0.01304678,0.00282255,0.00078104,0.001028
 87,-0.00016415,-0.00016779,0.00082094,0.00285358,0.00558887,0.00064061
 ,-0.14354816,0.09022264,-0.11215587,-0.00208668,-0.00242644,0.00063495
 ,-0.00067144,-0.00054522,0.00012829,-0.00034242,0.00042083,-0.00066470
 ,0.14327218,-0.00000094,0.00000069,-0.00000975,-0.00001559,-0.00005314
 ,-0.00004277,-0.00000201,-0.00001240,0.00000571,0.00001970,0.00005271,
 0.00004981,-0.00000445,0.00000025,0.00001854,0.00000177,0.00000180,-0.
 00001095,-0.00000535,0.00002778,-0.00001732,-0.00000269,-0.00000547,-0
 .00000409,0.00000138,0.00000147,0.00000232,0.00000163,-0.00000082,0.00
 000243,-0.00027342,0.00037343,-0.00037964,-0.00003684,-0.00010387,-0.0
 0008615,-0.00002013,0.00000191,-0.00000014,0.00005493,-0.00001315,-0.0
 0005827,-0.00000002,-0.00000009,0.00000171,0.00000332,-0.00001805,-0.0
 0000126,0.00000251,-0.00001620,-0.00000512,-0.00000872,0.00002728,0.00
 001118,-0.00000595,0.00000499,0.00001232,-0.00000039,0.00000755,-0.000
 00894,0.00000087,0.00003064,-0.00000885,0.00000066,-0.00000165,0.00000
 171,0.00000197,-0.00000018,-0.00000138,0.00000081,0.00000137,-0.000001
 18,0.00000562,-0.00002105,0.00000291,-0.00000945,-0.00001012,-0.000017
 85,0.00000155,0.00000262,-0.00000042,0.00000826,-0.00002061,0.00001123
 ,0.00000302,-0.00000051,-0.00000573,-0.00000129,0.00000080,0.00000276,
 -0.00000162,0.00000475,0.00000324,-0.00000126,-0.00000125,0.00000454,-
 0.00000221,-0.00000115,-0.00000036,0.00000192,0.00000141,-0.00000004,0
 .00000191,-0.00000021,-0.00000107,-0.00000032,-0.00000118,-0.00000094,
 0.00000013,0.00000100,0.00000061,-0.00000093,-0.00000082,0.00000146,-0
 .00000030,0.00000033,0.00000123,0.00302257,0.00279727,-0.00313740,0.01
 362559,-0.00691140,0.01862162,-0.00652655,0.00825013,-0.00794759,-0.00
 024430,-0.00056288,-0.00071966,0.00539619,-0.00071227,-0.00356999,0.08
 980292,-0.11751448,0.08701025,-0.00221446,-0.00117712,0.00089769,-0.00
 054395,-0.00038540,0.00024636,0.00075695,-0.00047770,0.00091353,-0.100
 42710,0.11745473,-0.00002571,0.00003643,0.00000791,0.00002493,0.000031
 09,-0.00006841,0.00000446,0.00006397,0.00000768,0.00005824,0.00006507,
 0.00000808,0.00000844,-0.00003502,-0.00001988,-0.00000275,-0.00004713,
 0.00003191,-0.00001011,-0.00015659,-0.00004892,-0.00000755,-0.00002213
 ,-0.00000515,-0.00000261,-0.00000642,-0.00000035,-0.00000163,-0.000001
 66,-0.00000643,-0.00095371,0.00119793,-0.00016392,-0.00002325,-0.00031
 003,-0.00035711,-0.00001656,0.00000072,0.00000161,0.00012745,0.0002576
 6,-0.00001533,0.00000027,0.00000161,-0.00000462,-0.00001350,0.00006244
 ,0.00000353,-0.00001308,0.00006160,0.00000514,0.00002268,-0.00009085,-
 0.00002966,0.00001905,-0.00001616,-0.00004467,-0.00000341,-0.00003215,
 0.00003039,0.00001543,-0.00010414,0.00003929,-0.00000020,0.00000457,-0
 .00000438,-0.00000341,0.00000455,0.00000217,0.00000741,-0.00001243,0.0
 0000191,-0.00001281,0.00005634,-0.00001498,-0.00002204,0.00004653,0.00
 001591,0.00000002,-0.00000959,-0.00000496,-0.00000904,-0.00005620,-0.0
 0006286,-0.00000136,0.00000544,0.00001784,0.00000404,-0.00000321,-0.00
 000873,0.00000518,-0.00001527,-0.00001064,0.00000630,0.00000600,-0.000
 01454,0.00000684,0.00000257,0.00000140,-0.00000538,-0.00000330,-0.0000
 0093,-0.00000519,-0.00000011,0.00000309,-0.00000060,0.00000368,0.00000
 331,-0.00000055,-0.00000336,-0.00000327,0.00000231,0.00000199,-0.00000
 392,0.00000076,-0.00000068,-0.00000352,-0.00032128,-0.00387299,-0.0042
 4144,0.00663364,-0.00582454,0.01000969,-0.01859544,0.01652212,-0.01402
 718,0.00068360,-0.00083349,-0.00043562,0.00035724,-0.00282636,0.000796
 12,-0.11224579,0.08671162,-0.18328980,0.00096876,0.00046636,0.00056144
 ,0.00013211,0.00025375,-0.00003484,0.00032895,-0.00034469,0.00038530,0
 .12231429,-0.09217626,0.19053989,-0.00002176,-0.00001437,0.00002133,0.
 00002290,0.00001859,-0.00002008,-0.00000571,0.00000044,0.00000069,0.00
 007496,-0.00001234,-0.00008507,-0.00000141,-0.00001644,0.00000938,-0.0
 0000024,0.00000531,0.00000448,0.00002306,-0.00002323,-0.00000489,0.000
 00253,-0.00000289,-0.00000136,-0.00000059,0.00000007,0.00000266,-0.000
 00334,-0.00000055,-0.00000036,-0.00058544,-0.00056020,0.00038491,-0.00
 002037,0.00010204,0.00011543,0.00000790,-0.00002884,0.00003362,0.00002
 252,-0.00003761,-0.00003476,0.00000030,0.,-0.00000007,0.00000145,-0.00
 000559,-0.00000152,-0.00000214,-0.00000763,0.00001028,-0.00000290,0.00
 000632,0.00000358,-0.00000228,0.00000094,0.00000430,0.00000089,0.00000
 016,-0.00000687,-0.00000017,0.00001393,-0.00000832,0.00000075,0.000000
 05,-0.00000024,0.00000150,-0.00000137,0.00000103,-0.00000015,0.0000008
 3,0.00000282,-0.00000006,-0.00000541,0.00000423,-0.00000539,-0.0000076
 6,-0.00001117,0.00000129,0.00000032,-0.00000056,-0.00000404,0.00000265
 ,0.00002505,0.00000207,-0.00000106,-0.00000057,-0.00000039,0.00000011,
 0.00000044,-0.00000010,0.00000131,0.00000080,0.,0.00000035,0.00000034,
 -0.00000042,0.00000005,-0.00000020,-0.00000005,-0.00000008,-0.00000018
 ,0.00000010,-0.00000043,0.00000003,-0.00000003,-0.00000020,0.00000020,
 0.00000007,-0.00000016,-0.00000009,-0.00000008,-0.00000015,0.00000047,
 0.00000013,-0.00000006,0.00000008,-0.00112003,0.00034568,-0.00026670,-
 0.04766441,0.00890566,-0.01032426,0.00246570,0.00602878,-0.00027161,0.
 00228546,0.00527594,-0.00323314,0.00367040,-0.00672597,-0.01767937,0.0
 0456716,0.00440410,0.01745782,0.00012427,0.00028223,0.00080006,0.00007
 380,-0.00024827,-0.00096082,-0.00200985,-0.00220192,0.00105158,-0.0020
 0386,-0.00236593,0.00056455,0.04010599,0.00003170,0.00003356,-0.000012
 43,-0.00002621,-0.00000685,0.00000573,-0.00000389,-0.00001682,-0.00001
 331,0.00004025,-0.00005592,-0.00006659,-0.00001034,0.00002781,-0.00000
 329,0.00000363,0.00000844,-0.00001443,0.00001408,-0.00000972,0.0000550
 0,0.00000206,-0.00000551,0.00000008,0.00000065,-0.00000189,-0.00000465
 ,-0.00000307,-0.00000134,-0.00000281,-0.00056203,-0.00029244,0.0003269
 9,-0.00008779,0.00008204,0.00007937,0.00002989,-0.00000027,0.00000159,
 0.00004446,-0.00000795,-0.00006624,0.00000047,0.00000031,-0.00000089,-
 0.00000320,0.00001213,0.00000185,-0.00000144,0.00000958,-0.00000498,0.
 00000279,-0.00001616,-0.00000577,0.00000311,-0.00000465,-0.00000815,-0
 .00000316,-0.00000417,0.00000722,0.00000416,-0.00001556,0.00000609,0.0
 0000031,0.00000110,-0.00000007,0.00000092,0.00000071,0.00000086,0.0000
 0264,0.00000073,-0.00000013,-0.00000530,0.00000955,0.00000444,-0.00000
 639,0.00000278,-0.00000517,0.00000018,-0.00000112,0.00000147,-0.000008
 99,0.00000455,0.00001906,0.00000147,0.00000052,0.00000335,0.00000051,-
 0.00000058,-0.00000160,0.00000077,-0.00000262,-0.00000194,0.00000070,0
 .00000198,-0.00000320,0.00000148,0.00000116,0.00000014,-0.00000161,-0.
 00000095,-0.00000047,-0.00000078,-0.00000056,0.00000089,0.00000036,0.0
 0000058,0.00000120,-0.00000003,-0.00000109,-0.00000065,0.00000064,0.00
 000043,-0.00000053,0.00000043,-0.00000028,-0.00000092,0.00025326,-0.00
 092024,0.00040083,0.00885510,-0.07847233,-0.08520933,0.00632267,-0.000
 97262,-0.00139010,0.00516559,0.00145150,0.00139084,-0.00003780,0.00865
 500,0.01572396,-0.00241697,-0.00249993,-0.02466715,-0.00006739,-0.0002
 6382,-0.00126497,0.00007491,0.00033963,0.00072997,-0.00230810,-0.00108
 146,0.00030692,-0.00217719,-0.00102176,0.00094076,-0.01312750,0.075034
 53,0.00002675,0.00003326,-0.00001299,-0.00002190,0.00000952,0.00000323
 ,0.00000053,0.00003748,0.00000152,-0.00000110,-0.00002064,-0.00001663,
 -0.00000351,0.00000678,-0.00004070,-0.00000271,-0.00003267,0.00001617,
 -0.00001402,-0.00010100,-0.00000873,-0.00000031,-0.00000815,0.00000149
 ,0.00000140,-0.00000569,-0.00000546,0.00000051,-0.00000153,-0.00000651
 ,0.00019569,0.00018491,0.00001862,0.00001927,-0.00005775,-0.00008028,-
 0.00003323,-0.00002133,0.00001783,0.00001249,0.00008332,0.00004742,0.0
 0000075,0.00000080,-0.00000396,-0.00000963,0.00004520,0.00000252,-0.00
 001259,0.00004222,0.00001147,0.00001769,-0.00006353,-0.00002238,0.0000
 1304,-0.00001109,-0.00003091,0.00000133,-0.00002518,0.00001742,0.00000
 668,-0.00006667,0.00002191,-0.00000033,0.00000443,-0.00000493,-0.00000
 350,0.00000318,0.00000288,0.00000413,-0.00000987,0.00000351,-0.0000123
 2,0.00004204,-0.00000540,0.00000107,0.00003003,0.00001714,-0.00000130,
 -0.00000595,0.00000069,-0.00000684,-0.00000405,-0.00002313,-0.00000358
 ,0.00000300,0.00001364,0.00000266,-0.00000203,-0.00000667,0.00000347,-
 0.00001099,-0.00000836,0.00000349,0.00000454,-0.00001176,0.00000522,0.
 00000309,0.00000085,-0.00000513,-0.00000310,-0.00000052,-0.00000384,-0
 .00000061,0.00000298,0.00000075,0.00000268,0.00000309,-0.00000013,-0.0
 0000302,-0.00000196,0.00000246,0.00000160,-0.00000292,0.00000109,-0.00
 000091,-0.00000297,-0.00002315,0.00052276,0.00063117,-0.01036035,-0.08
 526344,-0.31843638,0.00008557,-0.00206174,0.00169246,-0.00380516,0.002
 00425,-0.00048416,0.00215492,-0.00890841,-0.01464064,-0.00216189,0.000
 09985,-0.00436345,-0.00011958,-0.00001741,-0.00031258,0.00006637,-0.00
 043331,-0.00083857,0.00062543,0.00084398,0.00051646,0.00094129,0.00038
 996,0.00045247,0.01241207,0.09274116,0.33587603\\0.,0.00000141,0.00000
 007,-0.00000340,-0.00001212,-0.00000700,0.00000356,-0.00000207,0.00000
 028,-0.00001219,0.00000070,0.00000180,0.00000159,0.00000840,0.00001555
 ,-0.00000284,0.00000667,-0.00001239,0.00001471,-0.00000094,-0.00000380
 ,0.00000086,-0.00000083,-0.00000069,0.00000049,-0.00000267,-0.00000121
 ,-0.00000226,-0.00000039,-0.00000118,0.00000526,0.00001809,-0.00001001
 ,-0.00000550,-0.00001443,0.00000634,-0.00000246,0.00000493,-0.00000136
 ,-0.00000464,0.00001158,-0.00000455,0.00000050,-0.00000153,0.00000037,
 -0.00000719,0.00001037,0.00000447,0.00000669,-0.00000120,0.00000273,-0
 .00001060,-0.00000300,-0.00000419,0.00000696,-0.00000726,-0.00001505,-
 0.00000600,-0.00000732,0.00001165,0.00001722,0.00000159,0.00000748,0.0
 0000068,0.00000085,0.00000126,-0.00000060,0.00000261,0.00000131,-0.000
 00132,-0.00000325,0.00000670,0.00000203,-0.00001738,0.00000897,0.00000
 239,0.00001370,-0.00000982,0.00000074,0.00000188,-0.00000169,-0.000016
 61,-0.00000935,0.00000214,0.00000638,-0.00000157,-0.00000168,-0.000000
 46,-0.00000259,0.00000238,0.00000323,0.00000289,0.00000326,-0.00000094
 ,0.00000131,0.00000414,-0.00000193,-0.00000061,-0.00000722,-0.00000128
 ,0.00000249,0.00000130,0.00000055,-0.00000210,-0.00000047,0.,-0.000000
 23,0.00000064,0.00000130,-0.00000078,-0.00000159,-0.00000029,0.0000005
 0,-0.00000141,-0.00000012,-0.00000091,-0.00000083,0.00000567,0.0000022
 3,0.00000338,0.00000014,0.00000222,-0.00000295,0.00000436,-0.00000211,
 -0.00000183,0.00000007,-0.00000071,-0.00000410,-0.00000437,0.00000016,
 0.00000610,-0.00000068,-0.00000251,-0.00000184,0.00000010,0.00000205,0
 .00000056,0.00000049,0.00000002,-0.00000057,0.00000063,0.00000099,0.00
 000198,-0.00000042,-0.00000073,0.00000140,-0.00000050,0.00000095,0.000
 00115\\\@


 IF YOU DON'T HAVE THE LAW - ARGUE THE FACTS.
 IF YOU DON'T HAVE THE FACTS - ARGUE THE LAW.
 IF YOU DON'T HAVE EITHER - POUND THE TABLE.
 Job cpu time:       0 days  5 hours 30 minutes 20.8 seconds.
 Elapsed time:       0 days  0 hours 41 minutes 28.4 seconds.
 File lengths (MBytes):  RWF=   1559 Int=      0 D2E=      0 Chk=     27 Scr=      1
 Normal termination of Gaussian 16 at Tue Jan 31 18:44:11 2023.
