 Entering Gaussian System, Link 0=g16
 Initial command:
 /Applications/g16/l1.exe "/Applications/g16/Scratch/Gau-17153.inp" -scrdir="/Applications/g16/Scratch/"
 Entering Link 1 = /Applications/g16/l1.exe PID=     17156.
  
 Copyright (c) 1988-2019, Gaussian, Inc.  All Rights Reserved.
  
 This is part of the Gaussian(R) 16 program.  It is based on
 the Gaussian(R) 09 system (copyright 2009, Gaussian, Inc.),
 the Gaussian(R) 03 system (copyright 2003, Gaussian, Inc.),
 the Gaussian(R) 98 system (copyright 1998, Gaussian, Inc.),
 the Gaussian(R) 94 system (copyright 1995, Gaussian, Inc.),
 the Gaussian 92(TM) system (copyright 1992, Gaussian, Inc.),
 the Gaussian 90(TM) system (copyright 1990, Gaussian, Inc.),
 the Gaussian 88(TM) system (copyright 1988, Gaussian, Inc.),
 the Gaussian 86(TM) system (copyright 1986, Carnegie Mellon
 University), and the Gaussian 82(TM) system (copyright 1983,
 Carnegie Mellon University). Gaussian is a federally registered
 trademark of Gaussian, Inc.
  
 This software contains proprietary and confidential information,
 including trade secrets, belonging to Gaussian, Inc.
  
 This software is provided under written license and may be
 used, copied, transmitted, or stored only in accord with that
 written license.
  
 The following legend is applicable only to US Government
 contracts under FAR:
  
                    RESTRICTED RIGHTS LEGEND
  
 Use, reproduction and disclosure by the US Government is
 subject to restrictions as set forth in subparagraphs (a)
 and (c) of the Commercial Computer Software - Restricted
 Rights clause in FAR 52.227-19.
  
 Gaussian, Inc.
 340 Quinnipiac St., Bldg. 40, Wallingford CT 06492
  
  
 ---------------------------------------------------------------
 Warning -- This program may not be used in any manner that
 competes with the business of Gaussian, Inc. or will provide
 assistance to any competitor of Gaussian, Inc.  The licensee
 of this program is prohibited from giving any competitor of
 Gaussian, Inc. access to this program.  By using this program,
 the user acknowledges that Gaussian, Inc. is engaged in the
 business of creating and licensing software in the field of
 computational chemistry and represents and warrants to the
 licensee that it is not a competitor of Gaussian, Inc. and that
 it will not use this program in any manner prohibited above.
 ---------------------------------------------------------------
  

 Cite this work as:
 Gaussian 16, Revision C.01,
 M. J. Frisch, G. W. Trucks, H. B. Schlegel, G. E. Scuseria, 
 M. A. Robb, J. R. Cheeseman, G. Scalmani, V. Barone, 
 G. A. Petersson, H. Nakatsuji, X. Li, M. Caricato, A. V. Marenich, 
 J. Bloino, B. G. Janesko, R. Gomperts, B. Mennucci, H. P. Hratchian, 
 J. V. Ortiz, A. F. Izmaylov, J. L. Sonnenberg, D. Williams-Young, 
 F. Ding, F. Lipparini, F. Egidi, J. Goings, B. Peng, A. Petrone, 
 T. Henderson, D. Ranasinghe, V. G. Zakrzewski, J. Gao, N. Rega, 
 G. Zheng, W. Liang, M. Hada, M. Ehara, K. Toyota, R. Fukuda, 
 J. Hasegawa, M. Ishida, T. Nakajima, Y. Honda, O. Kitao, H. Nakai, 
 T. Vreven, K. Throssell, J. A. Montgomery, Jr., J. E. Peralta, 
 F. Ogliaro, M. J. Bearpark, J. J. Heyd, E. N. Brothers, K. N. Kudin, 
 V. N. Staroverov, T. A. Keith, R. Kobayashi, J. Normand, 
 K. Raghavachari, A. P. Rendell, J. C. Burant, S. S. Iyengar, 
 J. Tomasi, M. Cossi, J. M. Millam, M. Klene, C. Adamo, R. Cammi, 
 J. W. Ochterski, R. L. Martin, K. Morokuma, O. Farkas, 
 J. B. Foresman, and D. J. Fox, Gaussian, Inc., Wallingford CT, 2019.
 
 ******************************************
 Gaussian 16:  EM64M-G16RevC.01  3-Jul-2019
                17-Mar-2023 
 ******************************************
 %nprocshared=8
 Will use up to    8 processors via shared memory.
 %mem=8GB
 %chk=fulluorene.chk
 ----------------------
 #p opt freq rhf/sto-3g
 ----------------------
 1/18=20,19=15,38=1/1,3;
 2/9=110,12=2,17=6,18=5,40=1/2;
 3/6=3,11=1,25=1,30=1,71=1,116=1/1,2,3;
 4//1;
 5/5=2,38=5/2;
 6/7=2,8=2,9=2,10=2,28=1/1;
 7//1,2,3,16;
 1/18=20,19=15/3(2);
 2/9=110/2;
 99//99;
 2/9=110/2;
 3/6=3,11=1,25=1,30=1,71=1,116=1/1,2,3;
 4/5=5,16=3,69=1/1;
 5/5=2,38=5/2;
 7//1,2,3,16;
 1/18=20,19=15/3(-5);
 2/9=110/2;
 6/7=2,8=2,9=2,10=2,19=2,28=1/1;
 99/9=1/99;
 Leave Link    1 at Fri Mar 17 23:26:03 2023, MaxMem=  1073741824 cpu:               1.5 elap:               0.2
 (Enter /Applications/g16/l101.exe)
 -------------------
 Title Card Required
 -------------------
 Symbolic Z-matrix:
 Charge =  0 Multiplicity = 1
 H                    -1.07446   1.14925  -0.90853 
 C                    -3.62413  -2.86372  -0.00017 
 C                    -2.23244  -2.86372  -0.00017 
 C                    -1.51208  -1.65981  -0.00017 
 C                    -2.21197  -0.46842  -0.00015 
 C                    -3.64097  -0.46752  -0.00021 
 C                    -4.34384  -1.66076  -0.00023 
 H                    -4.17093  -3.81824  -0.00007 
 H                    -1.68545  -3.81812  -0.0002 
 H                    -0.41328  -1.67186  -0.00006 
 H                    -5.44283  -1.66832  -0.00037 
 C                    -1.69548   0.94415   0. 
 H                    -1.07452   1.14906   0.9086 
 C                    -2.95151   1.77152   0.00004 
 C                    -3.09855   3.14544   0.00011 
 C                    -4.39413   3.68375  -0.00001 
 C                    -5.51225   2.85512   0.00022 
 C                    -5.37427   1.4601    0.00003 
 C                    -4.09907   0.91995  -0.00008 
 H                    -2.22293   3.80935   0.00019 
 H                    -4.52293   4.77622  -0.00018 
 H                    -6.51989   3.29643   0.00041 
 H                    -6.26175   0.81187   0.00002 
 
 ITRead=  0  0  0  0  0  0  0  0  0  0  0  0  0  0  0  0  0  0  0  0
 ITRead=  0  0  0
 MicOpt= -1 -1 -1 -1 -1 -1 -1 -1 -1 -1 -1 -1 -1 -1 -1 -1 -1 -1 -1 -1
 MicOpt= -1 -1 -1
 NAtoms=     23 NQM=       23 NQMF=       0 NMMI=      0 NMMIF=      0
                NMic=       0 NMicF=      0.
                    Isotopes and Nuclear Properties:
 (Nuclear quadrupole moments (NQMom) in fm**2, nuclear magnetic moments (NMagM)
  in nuclear magnetons)

  Atom         1           2           3           4           5           6           7           8           9          10
 IAtWgt=           1          12          12          12          12          12          12           1           1           1
 AtmWgt=   1.0078250  12.0000000  12.0000000  12.0000000  12.0000000  12.0000000  12.0000000   1.0078250   1.0078250   1.0078250
 NucSpn=           1           0           0           0           0           0           0           1           1           1
 AtZEff=  -0.0000000  -0.0000000  -0.0000000  -0.0000000  -0.0000000  -0.0000000  -0.0000000  -0.0000000  -0.0000000  -0.0000000
 NQMom=    0.0000000   0.0000000   0.0000000   0.0000000   0.0000000   0.0000000   0.0000000   0.0000000   0.0000000   0.0000000
 NMagM=    2.7928460   0.0000000   0.0000000   0.0000000   0.0000000   0.0000000   0.0000000   2.7928460   2.7928460   2.7928460
 AtZNuc=   1.0000000   6.0000000   6.0000000   6.0000000   6.0000000   6.0000000   6.0000000   1.0000000   1.0000000   1.0000000

  Atom        11          12          13          14          15          16          17          18          19          20
 IAtWgt=           1          12           1          12          12          12          12          12          12           1
 AtmWgt=   1.0078250  12.0000000   1.0078250  12.0000000  12.0000000  12.0000000  12.0000000  12.0000000  12.0000000   1.0078250
 NucSpn=           1           0           1           0           0           0           0           0           0           1
 AtZEff=  -0.0000000  -0.0000000  -0.0000000  -0.0000000  -0.0000000  -0.0000000  -0.0000000  -0.0000000  -0.0000000  -0.0000000
 NQMom=    0.0000000   0.0000000   0.0000000   0.0000000   0.0000000   0.0000000   0.0000000   0.0000000   0.0000000   0.0000000
 NMagM=    2.7928460   0.0000000   2.7928460   0.0000000   0.0000000   0.0000000   0.0000000   0.0000000   0.0000000   2.7928460
 AtZNuc=   1.0000000   6.0000000   1.0000000   6.0000000   6.0000000   6.0000000   6.0000000   6.0000000   6.0000000   1.0000000

  Atom        21          22          23
 IAtWgt=           1           1           1
 AtmWgt=   1.0078250   1.0078250   1.0078250
 NucSpn=           1           1           1
 AtZEff=  -0.0000000  -0.0000000  -0.0000000
 NQMom=    0.0000000   0.0000000   0.0000000
 NMagM=    2.7928460   2.7928460   2.7928460
 AtZNuc=   1.0000000   1.0000000   1.0000000
 Leave Link  101 at Fri Mar 17 23:26:03 2023, MaxMem=  1073741824 cpu:               1.5 elap:               0.2
 (Enter /Applications/g16/l103.exe)

 GradGradGradGradGradGradGradGradGradGradGradGradGradGradGradGradGradGrad
 Berny optimization.
 Initialization pass.
                           ----------------------------
                           !    Initial Parameters    !
                           ! (Angstroms and Degrees)  !
 --------------------------                            --------------------------
 ! Name  Definition              Value          Derivative Info.                !
 --------------------------------------------------------------------------------
 ! R1    R(1,12)                 1.1194         estimate D2E/DX2                !
 ! R2    R(2,3)                  1.3917         estimate D2E/DX2                !
 ! R3    R(2,7)                  1.4018         estimate D2E/DX2                !
 ! R4    R(2,8)                  1.1            estimate D2E/DX2                !
 ! R5    R(3,4)                  1.403          estimate D2E/DX2                !
 ! R6    R(3,9)                  1.1            estimate D2E/DX2                !
 ! R7    R(4,5)                  1.3818         estimate D2E/DX2                !
 ! R8    R(4,10)                 1.0989         estimate D2E/DX2                !
 ! R9    R(5,6)                  1.429          estimate D2E/DX2                !
 ! R10   R(5,12)                 1.504          estimate D2E/DX2                !
 ! R11   R(6,7)                  1.3849         estimate D2E/DX2                !
 ! R12   R(6,19)                 1.4611         estimate D2E/DX2                !
 ! R13   R(7,11)                 1.099          estimate D2E/DX2                !
 ! R14   R(12,13)                1.1194         estimate D2E/DX2                !
 ! R15   R(12,14)                1.504          estimate D2E/DX2                !
 ! R16   R(14,15)                1.3818         estimate D2E/DX2                !
 ! R17   R(14,19)                1.429          estimate D2E/DX2                !
 ! R18   R(15,16)                1.403          estimate D2E/DX2                !
 ! R19   R(15,20)                1.0989         estimate D2E/DX2                !
 ! R20   R(16,17)                1.3917         estimate D2E/DX2                !
 ! R21   R(16,21)                1.1            estimate D2E/DX2                !
 ! R22   R(17,18)                1.4018         estimate D2E/DX2                !
 ! R23   R(17,22)                1.1            estimate D2E/DX2                !
 ! R24   R(18,19)                1.3849         estimate D2E/DX2                !
 ! R25   R(18,23)                1.099          estimate D2E/DX2                !
 ! A1    A(3,2,7)              120.8913         estimate D2E/DX2                !
 ! A2    A(3,2,8)              119.8062         estimate D2E/DX2                !
 ! A3    A(7,2,8)              119.3025         estimate D2E/DX2                !
 ! A4    A(2,3,4)              120.8943         estimate D2E/DX2                !
 ! A5    A(2,3,9)              119.8181         estimate D2E/DX2                !
 ! A6    A(4,3,9)              119.2877         estimate D2E/DX2                !
 ! A7    A(3,4,5)              118.6734         estimate D2E/DX2                !
 ! A8    A(3,4,10)             120.2663         estimate D2E/DX2                !
 ! A9    A(5,4,10)             121.0604         estimate D2E/DX2                !
 ! A10   A(4,5,6)              120.4684         estimate D2E/DX2                !
 ! A11   A(4,5,12)             129.4831         estimate D2E/DX2                !
 ! A12   A(6,5,12)             110.0484         estimate D2E/DX2                !
 ! A13   A(5,6,7)              120.4637         estimate D2E/DX2                !
 ! A14   A(5,6,19)             108.3073         estimate D2E/DX2                !
 ! A15   A(7,6,19)             131.229          estimate D2E/DX2                !
 ! A16   A(2,7,6)              118.6089         estimate D2E/DX2                !
 ! A17   A(2,7,11)             120.4976         estimate D2E/DX2                !
 ! A18   A(6,7,11)             120.8935         estimate D2E/DX2                !
 ! A19   A(1,12,5)             111.254          estimate D2E/DX2                !
 ! A20   A(1,12,13)            108.5098         estimate D2E/DX2                !
 ! A21   A(1,12,14)            111.2545         estimate D2E/DX2                !
 ! A22   A(5,12,13)            111.2529         estimate D2E/DX2                !
 ! A23   A(5,12,14)            103.2891         estimate D2E/DX2                !
 ! A24   A(13,12,14)           111.2553         estimate D2E/DX2                !
 ! A25   A(12,14,15)           129.4825         estimate D2E/DX2                !
 ! A26   A(12,14,19)           110.0486         estimate D2E/DX2                !
 ! A27   A(15,14,19)           120.4689         estimate D2E/DX2                !
 ! A28   A(14,15,16)           118.6716         estimate D2E/DX2                !
 ! A29   A(14,15,20)           121.0613         estimate D2E/DX2                !
 ! A30   A(16,15,20)           120.2671         estimate D2E/DX2                !
 ! A31   A(15,16,17)           120.8955         estimate D2E/DX2                !
 ! A32   A(15,16,21)           119.2868         estimate D2E/DX2                !
 ! A33   A(17,16,21)           119.8176         estimate D2E/DX2                !
 ! A34   A(16,17,18)           120.8927         estimate D2E/DX2                !
 ! A35   A(16,17,22)           119.8067         estimate D2E/DX2                !
 ! A36   A(18,17,22)           119.3006         estimate D2E/DX2                !
 ! A37   A(17,18,19)           118.6055         estimate D2E/DX2                !
 ! A38   A(17,18,23)           120.496          estimate D2E/DX2                !
 ! A39   A(19,18,23)           120.8985         estimate D2E/DX2                !
 ! A40   A(6,19,14)            108.3066         estimate D2E/DX2                !
 ! A41   A(6,19,18)            131.2278         estimate D2E/DX2                !
 ! A42   A(14,19,18)           120.4657         estimate D2E/DX2                !
 ! D1    D(7,2,3,4)              0.003          estimate D2E/DX2                !
 ! D2    D(7,2,3,9)           -179.9954         estimate D2E/DX2                !
 ! D3    D(8,2,3,4)           -179.9939         estimate D2E/DX2                !
 ! D4    D(8,2,3,9)              0.0077         estimate D2E/DX2                !
 ! D5    D(3,2,7,6)             -0.0039         estimate D2E/DX2                !
 ! D6    D(3,2,7,11)           179.9919         estimate D2E/DX2                !
 ! D7    D(8,2,7,6)            179.9931         estimate D2E/DX2                !
 ! D8    D(8,2,7,11)            -0.0111         estimate D2E/DX2                !
 ! D9    D(2,3,4,5)              0.001          estimate D2E/DX2                !
 ! D10   D(2,3,4,10)           179.9936         estimate D2E/DX2                !
 ! D11   D(9,3,4,5)            179.9994         estimate D2E/DX2                !
 ! D12   D(9,3,4,10)            -0.008          estimate D2E/DX2                !
 ! D13   D(3,4,5,6)             -0.004          estimate D2E/DX2                !
 ! D14   D(3,4,5,12)           179.9929         estimate D2E/DX2                !
 ! D15   D(10,4,5,6)          -179.9965         estimate D2E/DX2                !
 ! D16   D(10,4,5,12)            0.0004         estimate D2E/DX2                !
 ! D17   D(4,5,6,7)              0.0031         estimate D2E/DX2                !
 ! D18   D(4,5,6,19)           179.9961         estimate D2E/DX2                !
 ! D19   D(12,5,6,7)          -179.9944         estimate D2E/DX2                !
 ! D20   D(12,5,6,19)           -0.0014         estimate D2E/DX2                !
 ! D21   D(4,5,12,1)            60.5621         estimate D2E/DX2                !
 ! D22   D(4,5,12,13)          -60.5541         estimate D2E/DX2                !
 ! D23   D(4,5,12,14)         -179.9962         estimate D2E/DX2                !
 ! D24   D(6,5,12,1)          -119.4408         estimate D2E/DX2                !
 ! D25   D(6,5,12,13)          119.4431         estimate D2E/DX2                !
 ! D26   D(6,5,12,14)            0.0009         estimate D2E/DX2                !
 ! D27   D(5,6,7,2)              0.0009         estimate D2E/DX2                !
 ! D28   D(5,6,7,11)          -179.9949         estimate D2E/DX2                !
 ! D29   D(19,6,7,2)          -179.9903         estimate D2E/DX2                !
 ! D30   D(19,6,7,11)            0.0139         estimate D2E/DX2                !
 ! D31   D(5,6,19,14)            0.0013         estimate D2E/DX2                !
 ! D32   D(5,6,19,18)         -179.9941         estimate D2E/DX2                !
 ! D33   D(7,6,19,14)          179.9933         estimate D2E/DX2                !
 ! D34   D(7,6,19,18)           -0.0021         estimate D2E/DX2                !
 ! D35   D(1,12,14,15)         -60.556          estimate D2E/DX2                !
 ! D36   D(1,12,14,19)         119.4412         estimate D2E/DX2                !
 ! D37   D(5,12,14,15)        -179.9973         estimate D2E/DX2                !
 ! D38   D(5,12,14,19)          -0.0001         estimate D2E/DX2                !
 ! D39   D(13,12,14,15)         60.5622         estimate D2E/DX2                !
 ! D40   D(13,12,14,19)       -119.4406         estimate D2E/DX2                !
 ! D41   D(12,14,15,16)        179.9932         estimate D2E/DX2                !
 ! D42   D(12,14,15,20)         -0.0022         estimate D2E/DX2                !
 ! D43   D(19,14,15,16)         -0.0038         estimate D2E/DX2                !
 ! D44   D(19,14,15,20)       -179.9991         estimate D2E/DX2                !
 ! D45   D(12,14,19,6)          -0.0007         estimate D2E/DX2                !
 ! D46   D(12,14,19,18)        179.9953         estimate D2E/DX2                !
 ! D47   D(15,14,19,6)         179.9968         estimate D2E/DX2                !
 ! D48   D(15,14,19,18)         -0.0072         estimate D2E/DX2                !
 ! D49   D(14,15,16,17)          0.0201         estimate D2E/DX2                !
 ! D50   D(14,15,16,21)       -179.9861         estimate D2E/DX2                !
 ! D51   D(20,15,16,17)       -179.9844         estimate D2E/DX2                !
 ! D52   D(20,15,16,21)          0.0093         estimate D2E/DX2                !
 ! D53   D(15,16,17,18)         -0.0258         estimate D2E/DX2                !
 ! D54   D(15,16,17,22)        179.9823         estimate D2E/DX2                !
 ! D55   D(21,16,17,18)        179.9804         estimate D2E/DX2                !
 ! D56   D(21,16,17,22)         -0.0114         estimate D2E/DX2                !
 ! D57   D(16,17,18,19)          0.0144         estimate D2E/DX2                !
 ! D58   D(16,17,18,23)       -179.9879         estimate D2E/DX2                !
 ! D59   D(22,17,18,19)       -179.9937         estimate D2E/DX2                !
 ! D60   D(22,17,18,23)          0.004          estimate D2E/DX2                !
 ! D61   D(17,18,19,6)         179.9969         estimate D2E/DX2                !
 ! D62   D(17,18,19,14)          0.002          estimate D2E/DX2                !
 ! D63   D(23,18,19,6)          -0.0008         estimate D2E/DX2                !
 ! D64   D(23,18,19,14)       -179.9957         estimate D2E/DX2                !
 --------------------------------------------------------------------------------
 Trust Radius=3.00D-01 FncErr=1.00D-07 GrdErr=1.00D-07 EigMax=2.50D+02 EigMin=1.00D-04
 Number of steps in this run=    138 maximum allowed number of steps=    138.
 GradGradGradGradGradGradGradGradGradGradGradGradGradGradGradGradGradGrad

 Leave Link  103 at Fri Mar 17 23:26:03 2023, MaxMem=  1073741824 cpu:               0.1 elap:               0.0
 (Enter /Applications/g16/l202.exe)
                          Input orientation:                          
 ---------------------------------------------------------------------
 Center     Atomic      Atomic             Coordinates (Angstroms)
 Number     Number       Type             X           Y           Z
 ---------------------------------------------------------------------
      1          1           0       -1.074464    1.149251   -0.908525
      2          6           0       -3.624135   -2.863724   -0.000169
      3          6           0       -2.232440   -2.863724   -0.000169
      4          6           0       -1.512078   -1.659813   -0.000169
      5          6           0       -2.211971   -0.468417   -0.000148
      6          6           0       -3.640975   -0.467518   -0.000212
      7          6           0       -4.343844   -1.660764   -0.000232
      8          1           0       -4.170931   -3.818244   -0.000068
      9          1           0       -1.685451   -3.818123   -0.000196
     10          1           0       -0.413276   -1.671857   -0.000063
     11          1           0       -5.442831   -1.668316   -0.000365
     12          6           0       -1.695479    0.944149    0.000000
     13          1           0       -1.074516    1.149058    0.908600
     14          6           0       -2.951508    1.771517    0.000040
     15          6           0       -3.098553    3.145436    0.000114
     16          6           0       -4.394133    3.683746   -0.000009
     17          6           0       -5.512254    2.855120    0.000218
     18          6           0       -5.374267    1.460103    0.000033
     19          6           0       -4.099066    0.919954   -0.000077
     20          1           0       -2.222929    3.809353    0.000190
     21          1           0       -4.522934    4.776216   -0.000184
     22          1           0       -6.519894    3.296428    0.000412
     23          1           0       -6.261751    0.811871    0.000015
 ---------------------------------------------------------------------
                    Distance matrix (angstroms):
                    1          2          3          4          5
     1  H    0.000000
     2  C    4.840444   0.000000
     3  C    4.274341   1.391695   0.000000
     4  C    2.984536   2.431088   1.402969   0.000000
     5  C    2.176217   2.780594   2.395394   1.381765   0.000000
     6  C    3.166379   2.396265   2.779528   2.440035   1.429004
     7  C    4.405681   1.401818   2.430049   2.831766   2.442657
     8  H    5.923631   1.100043   2.160754   3.424664   3.880575
     9  H    5.086568   2.160873   1.100034   2.165262   3.390834
    10  H    3.036630   3.424932   2.174834   1.098868   2.164156
    11  H    5.276937   2.176386   3.425728   3.930762   3.446478
    12  C    1.119439   4.268444   3.845546   2.610413   1.504030
    13  H    1.817125   4.840334   4.274233   2.984473   2.176201
    14  C    2.176235   4.683790   4.690684   3.721019   2.358860
    15  C    2.984513   6.032101   6.071257   5.060368   3.721016
    16  C    4.274256   6.592591   6.895091   6.071232   4.690660
    17  C    4.840432   6.022472   6.592599   6.032083   4.683777
    18  C    4.405725   4.664595   5.344769   4.964915   3.703958
    19  C    3.166397   3.813368   4.219065   3.653451   2.342798
    20  H    3.036590   6.818602   6.673084   5.515169   4.277784
    21  H    5.086443   7.692628   7.975904   7.105471   5.731206
    22  H    5.923617   6.806827   7.505314   7.045747   5.721211
    23  H    5.277046   4.524049   5.453929   5.354308   4.247335
                    6          7          8          9         10
     6  C    0.000000
     7  C    1.384869   0.000000
     8  H    3.392376   2.164398   0.000000
     9  H    3.879514   3.423631   2.485480   0.000000
    10  H    3.445065   3.930584   4.327464   2.494972   0.000000
    11  H    2.165318   1.099013   2.497983   4.328923   5.029556
    12  C    2.403697   3.714756   5.367332   4.762283   2.913337
    13  H    3.166381   4.405631   5.923475   5.086456   3.036522
    14  C    2.342785   3.703937   5.721225   5.731228   4.277785
    15  C    3.653445   4.964908   7.045767   7.105492   5.515163
    16  C    4.219033   5.344747   7.505310   7.975901   6.673058
    17  C    3.813346   4.664589   6.806830   7.692632   6.818585
    18  C    2.592301   3.286576   5.413775   6.439490   5.866908
    19  C    1.461139   2.592300   4.738743   5.317416   4.505833
    20  H    4.505827   5.866895   7.872417   7.646390   5.772219
    21  H    5.317386   6.439471   8.601665   9.050634   7.646367
    22  H    4.738720   5.413774   7.492408   8.601667   7.872397
    23  H    2.916385   3.129264   5.080304   6.509944   6.354020
                   11         12         13         14         15
    11  H    0.000000
    12  C    4.568109   0.000000
    13  H    5.276930   1.119436   0.000000
    14  C    4.247251   1.504043   2.176243   0.000000
    15  C    5.354236   2.610418   2.984560   1.381765   0.000000
    16  C    5.453837   3.845533   4.274350   2.395368   1.402963
    17  C    4.523969   4.268440   4.840385   2.780578   2.431098
    18  C    3.129170   3.714793   4.405690   2.442691   2.831823
    19  C    2.916307   2.403709   3.166399   1.429003   2.440040
    20  H    6.353946   2.913348   3.036648   2.164163   1.098864
    21  H    6.509854   4.762272   5.086625   3.390810   2.165249
    22  H    5.080231   5.367327   5.923525   3.880558   3.424671
    23  H    2.611888   4.568188   5.276990   3.446539   3.930820
                   16         17         18         19         20
    16  C    0.000000
    17  C    1.391695   0.000000
    18  C    2.430072   1.401825   0.000000
    19  C    2.779498   2.396240   1.384882   0.000000
    20  H    2.174834   3.424941   3.930637   3.445071   0.000000
    21  H    1.100037   2.160871   3.423649   3.879487   2.494964
    22  H    2.160758   1.100041   2.164382   3.392350   4.327470
    23  H    3.425735   2.176376   1.099014   2.165384   5.029610
                   21         22         23
    21  H    0.000000
    22  H    2.485482   0.000000
    23  H    4.328916   2.497931   0.000000
 Stoichiometry    C13H10
 Framework group  C1[X(C13H10)]
 Deg. of freedom    63
 Full point group                 C1      NOp   1
 Largest Abelian subgroup         C1      NOp   1
 Largest concise Abelian subgroup C1      NOp   1
                         Standard orientation:                         
 ---------------------------------------------------------------------
 Center     Atomic      Atomic             Coordinates (Angstroms)
 Number     Number       Type             X           Y           Z
 ---------------------------------------------------------------------
      1          1           0       -0.000061    2.476947   -0.908470
      2          6           0        3.011239   -1.202300   -0.000114
      3          6           0        3.447554    0.119231   -0.000114
      4          6           0        2.530182    1.180717   -0.000114
      5          6           0        1.179426    0.889628   -0.000093
      6          6           0        0.730561   -0.467049   -0.000157
      7          6           0        1.643289   -1.508580   -0.000177
      8          1           0        3.746208   -2.020784   -0.000013
      9          1           0        4.525324    0.339426   -0.000141
     10          1           0        2.886108    2.220346   -0.000008
     11          1           0        1.305913   -2.554528   -0.000310
     12          6           0        0.000004    1.822939    0.000055
     13          1           0        0.000106    2.476837    0.908655
     14          6           0       -1.179434    0.889625    0.000095
     15          6           0       -2.530185    1.180736    0.000169
     16          6           0       -3.447537    0.119241    0.000046
     17          6           0       -3.011233   -1.202294    0.000273
     18          6           0       -1.643287   -1.508620    0.000088
     19          6           0       -0.730578   -0.467054   -0.000022
     20          1           0       -2.886110    2.220361    0.000245
     21          1           0       -4.525310    0.339438   -0.000129
     22          1           0       -3.746201   -2.020776    0.000467
     23          1           0       -1.305975   -2.554590    0.000070
 ---------------------------------------------------------------------
 Rotational constants (GHZ):           2.1708789           0.5883482           0.4643104
 Leave Link  202 at Fri Mar 17 23:26:03 2023, MaxMem=  1073741824 cpu:               0.1 elap:               0.0
 (Enter /Applications/g16/l301.exe)
 Standard basis: STO-3G (5D, 7F)
 Ernie: Thresh=  0.10000D-02 Tol=  0.10000D-05 Strict=F.
 There are    75 symmetry adapted cartesian basis functions of A   symmetry.
 There are    75 symmetry adapted basis functions of A   symmetry.
    75 basis functions,   225 primitive gaussians,    75 cartesian basis functions
    44 alpha electrons       44 beta electrons
       nuclear repulsion energy       695.0113612369 Hartrees.
 IExCor=    0 DFT=F Ex=HF Corr=None ExCW=0 ScaHFX=  1.000000
 ScaDFX=  1.000000  1.000000  1.000000  1.000000 ScalE2=  1.000000  1.000000
 IRadAn=      5 IRanWt=     -1 IRanGd=            0 ICorTp=0 IEmpDi=  4
 NAtoms=   23 NActive=   23 NUniq=   23 SFac= 1.00D+00 NAtFMM=   60 NAOKFM=F Big=F
 Integral buffers will be    131072 words long.
 Raffenetti 1 integral format.
 Two-electron integral symmetry is turned on.
 Leave Link  301 at Fri Mar 17 23:26:03 2023, MaxMem=  1073741824 cpu:               0.2 elap:               0.0
 (Enter /Applications/g16/l302.exe)
 NPDir=0 NMtPBC=     1 NCelOv=     1 NCel=       1 NClECP=     1 NCelD=      1
         NCelK=      1 NCelE2=     1 NClLst=     1 CellRange=     0.0.
 One-electron integrals computed using PRISM.
 One-electron integral symmetry used in STVInt
 NBasis=    75 RedAO= T EigKep=  1.72D-01  NBF=    75
 NBsUse=    75 1.00D-06 EigRej= -1.00D+00 NBFU=    75
 Leave Link  302 at Fri Mar 17 23:26:03 2023, MaxMem=  1073741824 cpu:               0.8 elap:               0.1
 (Enter /Applications/g16/l303.exe)
 DipDrv:  MaxL=1.
 Leave Link  303 at Fri Mar 17 23:26:03 2023, MaxMem=  1073741824 cpu:               0.2 elap:               0.1
 (Enter /Applications/g16/l401.exe)
 ExpMin= 1.69D-01 ExpMax= 7.16D+01 ExpMxC= 7.16D+01 IAcc=3 IRadAn=         5 AccDes= 0.00D+00
 Harris functional with IExCor=  205 and IRadAn=       5 diagonalized for initial guess.
 HarFok:  IExCor=  205 AccDes= 0.00D+00 IRadAn=         5 IDoV= 1 UseB2=F ITyADJ=14
 ICtDFT=  3500011 ScaDFX=  1.000000  1.000000  1.000000  1.000000
 FoFCou: FMM=F IPFlag=           0 FMFlag=      100000 FMFlg1=           0
         NFxFlg=           0 DoJE=T BraDBF=F KetDBF=T FulRan=T
         wScrn=  0.000000 ICntrl=       500 IOpCl=  0 I1Cent=   200000004 NGrid=           0
         NMat0=    1 NMatS0=      1 NMatT0=    0 NMatD0=    1 NMtDS0=    0 NMtDT0=    0
 Petite list used in FoFCou.
 Harris En= -492.673182397531    
 JPrj=0 DoOrth=F DoCkMO=F.
 Leave Link  401 at Fri Mar 17 23:26:04 2023, MaxMem=  1073741824 cpu:               3.3 elap:               0.5
 (Enter /Applications/g16/l502.exe)
 Integral symmetry usage will be decided dynamically.
 Closed shell SCF:
 Using DIIS extrapolation, IDIIS=  1040.
 NGot=  1073741824 LenX=  1073728005 LenY=  1073721939
 Requested convergence on RMS density matrix=1.00D-08 within 128 cycles.
 Requested convergence on MAX density matrix=1.00D-06.
 Requested convergence on             energy=1.00D-06.
 No special actions if energy rises.
 Fock matrices will be formed incrementally for  20 cycles.
 Integral accuracy reduced to 1.0D-05 until final iterations.

 Cycle   1  Pass 0  IDiag  1:
 FoFJK:  IHMeth= 1 ICntrl=       0 DoSepK=F KAlg= 0 I1Cent=           0 FoldK=F
 IRaf= 910000000 NMat=       1 IRICut=       1 DoRegI=T DoRafI=F ISym2E= 0 IDoP0=0 IntGTp=1.
 FoFCou: FMM=F IPFlag=           0 FMFlag=      100000 FMFlg1=           0
         NFxFlg=           0 DoJE=F BraDBF=F KetDBF=F FulRan=T
         wScrn=  0.000000 ICntrl=         0 IOpCl=  0 I1Cent=           0 NGrid=           0
         NMat0=    1 NMatS0=      1 NMatT0=    0 NMatD0=    1 NMtDS0=    0 NMtDT0=    0
 Symmetry not used in FoFCou.
 E= -491.936022069232    
 DIIS: error= 5.45D-02 at cycle   1 NSaved=   1.
 NSaved= 1 IEnMin= 1 EnMin= -491.936022069232     IErMin= 1 ErrMin= 5.45D-02
 ErrMax= 5.45D-02  0.00D+00 EMaxC= 1.00D-01 BMatC= 1.94D-01 BMatP= 1.94D-01
 IDIUse=3 WtCom= 4.55D-01 WtEn= 5.45D-01
 Coeff-Com:  0.100D+01
 Coeff-En:   0.100D+01
 Coeff:      0.100D+01
 Gap=     0.430 Goal=   None    Shift=    0.000
 GapD=    0.430 DampG=2.000 DampE=0.500 DampFc=1.0000 IDamp=-1.
 RMSDP=6.40D-03 MaxDP=8.87D-02              OVMax= 0.00D+00

 Cycle   2  Pass 0  IDiag  1:
 RMSU=  6.39D-03    CP:  9.95D-01
 E= -492.083733183944     Delta-E=       -0.147711114712 Rises=F Damp=F
 DIIS: error= 4.20D-03 at cycle   2 NSaved=   2.
 NSaved= 2 IEnMin= 2 EnMin= -492.083733183944     IErMin= 2 ErrMin= 4.20D-03
 ErrMax= 4.20D-03  0.00D+00 EMaxC= 1.00D-01 BMatC= 1.65D-03 BMatP= 1.94D-01
 IDIUse=3 WtCom= 9.58D-01 WtEn= 4.20D-02
 Coeff-Com: -0.292D-01 0.103D+01
 Coeff-En:   0.000D+00 0.100D+01
 Coeff:     -0.280D-01 0.103D+01
 Gap=     0.435 Goal=   None    Shift=    0.000
 RMSDP=8.06D-04 MaxDP=9.17D-03 DE=-1.48D-01 OVMax= 0.00D+00

 Cycle   3  Pass 0  IDiag  1:
 RMSU=  7.98D-04    CP:  9.95D-01  9.84D-01
 E= -492.085334698768     Delta-E=       -0.001601514824 Rises=F Damp=F
 DIIS: error= 2.01D-03 at cycle   3 NSaved=   3.
 NSaved= 3 IEnMin= 3 EnMin= -492.085334698768     IErMin= 3 ErrMin= 2.01D-03
 ErrMax= 2.01D-03  0.00D+00 EMaxC= 1.00D-01 BMatC= 1.85D-04 BMatP= 1.65D-03
 IDIUse=3 WtCom= 9.80D-01 WtEn= 2.01D-02
 Coeff-Com: -0.116D-01 0.188D+00 0.824D+00
 Coeff-En:   0.000D+00 0.000D+00 0.100D+01
 Coeff:     -0.114D-01 0.184D+00 0.827D+00
 Gap=     0.436 Goal=   None    Shift=    0.000
 RMSDP=3.21D-04 MaxDP=4.62D-03 DE=-1.60D-03 OVMax= 0.00D+00

 Cycle   4  Pass 0  IDiag  1:
 RMSU=  2.90D-04    CP:  9.96D-01  9.96D-01  8.55D-01
 E= -492.085593008081     Delta-E=       -0.000258309313 Rises=F Damp=F
 DIIS: error= 9.29D-04 at cycle   4 NSaved=   4.
 NSaved= 4 IEnMin= 4 EnMin= -492.085593008081     IErMin= 4 ErrMin= 9.29D-04
 ErrMax= 9.29D-04  0.00D+00 EMaxC= 1.00D-01 BMatC= 2.61D-05 BMatP= 1.85D-04
 IDIUse=3 WtCom= 9.91D-01 WtEn= 9.29D-03
 Coeff-Com:  0.206D-03-0.433D-01 0.207D+00 0.837D+00
 Coeff-En:   0.000D+00 0.000D+00 0.000D+00 0.100D+01
 Coeff:      0.205D-03-0.429D-01 0.205D+00 0.838D+00
 Gap=     0.437 Goal=   None    Shift=    0.000
 RMSDP=1.03D-04 MaxDP=1.20D-03 DE=-2.58D-04 OVMax= 0.00D+00

 Cycle   5  Pass 0  IDiag  1:
 RMSU=  5.13D-05    CP:  9.96D-01  9.97D-01  9.62D-01  9.17D-01
 E= -492.085635744384     Delta-E=       -0.000042736303 Rises=F Damp=F
 DIIS: error= 1.94D-04 at cycle   5 NSaved=   5.
 NSaved= 5 IEnMin= 5 EnMin= -492.085635744384     IErMin= 5 ErrMin= 1.94D-04
 ErrMax= 1.94D-04  0.00D+00 EMaxC= 1.00D-01 BMatC= 9.19D-07 BMatP= 2.61D-05
 IDIUse=3 WtCom= 9.98D-01 WtEn= 1.94D-03
 Coeff-Com:  0.599D-03-0.920D-02-0.541D-01-0.497D-01 0.111D+01
 Coeff-En:   0.000D+00 0.000D+00 0.000D+00 0.000D+00 0.100D+01
 Coeff:      0.598D-03-0.919D-02-0.540D-01-0.496D-01 0.111D+01
 Gap=     0.437 Goal=   None    Shift=    0.000
 RMSDP=3.73D-05 MaxDP=6.55D-04 DE=-4.27D-05 OVMax= 0.00D+00

 Cycle   6  Pass 0  IDiag  1:
 RMSU=  1.97D-05    CP:  9.96D-01  9.97D-01  9.79D-01  9.92D-01  1.35D+00
 E= -492.085640231631     Delta-E=       -0.000004487246 Rises=F Damp=F
 DIIS: error= 1.02D-04 at cycle   6 NSaved=   6.
 NSaved= 6 IEnMin= 6 EnMin= -492.085640231631     IErMin= 6 ErrMin= 1.02D-04
 ErrMax= 1.02D-04  0.00D+00 EMaxC= 1.00D-01 BMatC= 1.49D-07 BMatP= 9.19D-07
 IDIUse=3 WtCom= 9.99D-01 WtEn= 1.02D-03
 Coeff-Com: -0.541D-04 0.388D-02-0.952D-02-0.624D-01-0.975D-01 0.117D+01
 Coeff-En:   0.000D+00 0.000D+00 0.000D+00 0.000D+00 0.000D+00 0.100D+01
 Coeff:     -0.540D-04 0.388D-02-0.951D-02-0.623D-01-0.974D-01 0.117D+01
 Gap=     0.437 Goal=   None    Shift=    0.000
 RMSDP=1.79D-05 MaxDP=2.59D-04 DE=-4.49D-06 OVMax= 0.00D+00

 Cycle   7  Pass 0  IDiag  1:
 RMSU=  6.59D-06    CP:  9.96D-01  9.98D-01  9.84D-01  1.01D+00  1.62D+00
                    CP:  1.37D+00
 E= -492.085641133472     Delta-E=       -0.000000901842 Rises=F Damp=F
 DIIS: error= 4.34D-05 at cycle   7 NSaved=   7.
 NSaved= 7 IEnMin= 7 EnMin= -492.085641133472     IErMin= 7 ErrMin= 4.34D-05
 ErrMax= 4.34D-05  0.00D+00 EMaxC= 1.00D-01 BMatC= 3.23D-08 BMatP= 1.49D-07
 IDIUse=1 WtCom= 1.00D+00 WtEn= 0.00D+00
 Coeff-Com: -0.106D-03 0.153D-02 0.116D-01 0.130D-01-0.217D+00-0.456D-01
 Coeff-Com:  0.124D+01
 Coeff:     -0.106D-03 0.153D-02 0.116D-01 0.130D-01-0.217D+00-0.456D-01
 Coeff:      0.124D+01
 Gap=     0.437 Goal=   None    Shift=    0.000
 RMSDP=1.05D-05 MaxDP=1.55D-04 DE=-9.02D-07 OVMax= 0.00D+00

 Cycle   8  Pass 0  IDiag  1:
 RMSU=  3.19D-06    CP:  9.96D-01  9.98D-01  9.86D-01  1.02D+00  1.74D+00
                    CP:  1.72D+00  1.40D+00
 E= -492.085641365719     Delta-E=       -0.000000232247 Rises=F Damp=F
 DIIS: error= 1.38D-05 at cycle   8 NSaved=   8.
 NSaved= 8 IEnMin= 8 EnMin= -492.085641365719     IErMin= 8 ErrMin= 1.38D-05
 ErrMax= 1.38D-05  0.00D+00 EMaxC= 1.00D-01 BMatC= 3.80D-09 BMatP= 3.23D-08
 IDIUse=1 WtCom= 1.00D+00 WtEn= 0.00D+00
 Coeff-Com: -0.600D-05-0.356D-03 0.317D-02 0.123D-01-0.215D-01-0.173D+00
 Coeff-Com:  0.203D+00 0.977D+00
 Coeff:     -0.600D-05-0.356D-03 0.317D-02 0.123D-01-0.215D-01-0.173D+00
 Coeff:      0.203D+00 0.977D+00
 Gap=     0.437 Goal=   None    Shift=    0.000
 RMSDP=3.06D-06 MaxDP=4.40D-05 DE=-2.32D-07 OVMax= 0.00D+00

 Initial convergence to 1.0D-05 achieved.  Increase integral accuracy.
 Cycle   9  Pass 1  IDiag  1:
 E= -492.085644979755     Delta-E=       -0.000003614035 Rises=F Damp=F
 DIIS: error= 3.23D-06 at cycle   1 NSaved=   1.
 NSaved= 1 IEnMin= 1 EnMin= -492.085644979755     IErMin= 1 ErrMin= 3.23D-06
 ErrMax= 3.23D-06  0.00D+00 EMaxC= 1.00D-01 BMatC= 6.54D-10 BMatP= 6.54D-10
 IDIUse=1 WtCom= 1.00D+00 WtEn= 0.00D+00
 Coeff-Com:  0.100D+01
 Coeff:      0.100D+01
 Gap=     0.437 Goal=   None    Shift=    0.000
 RMSDP=3.06D-06 MaxDP=4.40D-05 DE=-3.61D-06 OVMax= 0.00D+00

 Cycle  10  Pass 1  IDiag  1:
 RMSU=  6.54D-07    CP:  1.00D+00
 E= -492.085644981287     Delta-E=       -0.000000001532 Rises=F Damp=F
 DIIS: error= 2.29D-06 at cycle   2 NSaved=   2.
 NSaved= 2 IEnMin= 2 EnMin= -492.085644981287     IErMin= 2 ErrMin= 2.29D-06
 ErrMax= 2.29D-06  0.00D+00 EMaxC= 1.00D-01 BMatC= 7.78D-11 BMatP= 6.54D-10
 IDIUse=1 WtCom= 1.00D+00 WtEn= 0.00D+00
 Coeff-Com: -0.588D-01 0.106D+01
 Coeff:     -0.588D-01 0.106D+01
 Gap=     0.437 Goal=   None    Shift=    0.000
 RMSDP=3.13D-07 MaxDP=4.43D-06 DE=-1.53D-09 OVMax= 0.00D+00

 Cycle  11  Pass 1  IDiag  1:
 RMSU=  2.45D-07    CP:  1.00D+00  1.30D+00
 E= -492.085644981609     Delta-E=       -0.000000000323 Rises=F Damp=F
 DIIS: error= 1.06D-06 at cycle   3 NSaved=   3.
 NSaved= 3 IEnMin= 3 EnMin= -492.085644981609     IErMin= 3 ErrMin= 1.06D-06
 ErrMax= 1.06D-06  0.00D+00 EMaxC= 1.00D-01 BMatC= 2.57D-11 BMatP= 7.78D-11
 IDIUse=1 WtCom= 1.00D+00 WtEn= 0.00D+00
 Coeff-Com: -0.116D+00 0.172D+00 0.943D+00
 Coeff:     -0.116D+00 0.172D+00 0.943D+00
 Gap=     0.437 Goal=   None    Shift=    0.000
 RMSDP=1.73D-07 MaxDP=2.47D-06 DE=-3.23D-10 OVMax= 0.00D+00

 Cycle  12  Pass 1  IDiag  1:
 RMSU=  9.84D-08    CP:  1.00D+00  1.51D+00  1.15D+00
 E= -492.085644981712     Delta-E=       -0.000000000103 Rises=F Damp=F
 DIIS: error= 4.95D-07 at cycle   4 NSaved=   4.
 NSaved= 4 IEnMin= 4 EnMin= -492.085644981712     IErMin= 4 ErrMin= 4.95D-07
 ErrMax= 4.95D-07  0.00D+00 EMaxC= 1.00D-01 BMatC= 4.70D-12 BMatP= 2.57D-11
 IDIUse=1 WtCom= 1.00D+00 WtEn= 0.00D+00
 Coeff-Com:  0.258D-01-0.295D+00-0.100D+00 0.137D+01
 Coeff:      0.258D-01-0.295D+00-0.100D+00 0.137D+01
 Gap=     0.437 Goal=   None    Shift=    0.000
 RMSDP=1.42D-07 MaxDP=2.11D-06 DE=-1.03D-10 OVMax= 0.00D+00

 Cycle  13  Pass 1  IDiag  1:
 RMSU=  2.90D-08    CP:  1.00D+00  1.65D+00  1.52D+00  1.54D+00
 E= -492.085644981741     Delta-E=       -0.000000000029 Rises=F Damp=F
 DIIS: error= 1.22D-07 at cycle   5 NSaved=   5.
 NSaved= 5 IEnMin= 5 EnMin= -492.085644981741     IErMin= 5 ErrMin= 1.22D-07
 ErrMax= 1.22D-07  0.00D+00 EMaxC= 1.00D-01 BMatC= 3.08D-13 BMatP= 4.70D-12
 IDIUse=1 WtCom= 1.00D+00 WtEn= 0.00D+00
 Coeff-Com:  0.583D-02 0.563D-02-0.621D-01-0.929D-01 0.114D+01
 Coeff:      0.583D-02 0.563D-02-0.621D-01-0.929D-01 0.114D+01
 Gap=     0.437 Goal=   None    Shift=    0.000
 RMSDP=3.03D-08 MaxDP=4.40D-07 DE=-2.86D-11 OVMax= 0.00D+00

 Cycle  14  Pass 1  IDiag  1:
 RMSU=  1.13D-08    CP:  1.00D+00  1.67D+00  1.58D+00  1.72D+00  1.38D+00
 E= -492.085644981739     Delta-E=        0.000000000002 Rises=F Damp=F
 DIIS: error= 3.99D-08 at cycle   6 NSaved=   6.
 NSaved= 6 IEnMin= 5 EnMin= -492.085644981741     IErMin= 6 ErrMin= 3.99D-08
 ErrMax= 3.99D-08  0.00D+00 EMaxC= 1.00D-01 BMatC= 5.69D-14 BMatP= 3.08D-13
 IDIUse=1 WtCom= 1.00D+00 WtEn= 0.00D+00
 Coeff-Com: -0.464D-02 0.640D-01 0.147D-01-0.294D+00 0.170D+00 0.105D+01
 Coeff:     -0.464D-02 0.640D-01 0.147D-01-0.294D+00 0.170D+00 0.105D+01
 Gap=     0.437 Goal=   None    Shift=    0.000
 RMSDP=1.10D-08 MaxDP=1.73D-07 DE= 1.82D-12 OVMax= 0.00D+00

 Cycle  15  Pass 1  IDiag  1:
 RMSU=  2.48D-09    CP:  1.00D+00  1.67D+00  1.59D+00  1.78D+00  1.66D+00
                    CP:  1.11D+00
 E= -492.085644981739     Delta-E=        0.000000000000 Rises=F Damp=F
 DIIS: error= 8.40D-09 at cycle   7 NSaved=   7.
 NSaved= 7 IEnMin= 5 EnMin= -492.085644981741     IErMin= 7 ErrMin= 8.40D-09
 ErrMax= 8.40D-09  0.00D+00 EMaxC= 1.00D-01 BMatC= 1.67D-15 BMatP= 5.69D-14
 IDIUse=1 WtCom= 1.00D+00 WtEn= 0.00D+00
 Coeff-Com: -0.104D-02 0.947D-02 0.478D-02-0.419D-01-0.228D-01 0.138D+00
 Coeff-Com:  0.914D+00
 Coeff:     -0.104D-02 0.947D-02 0.478D-02-0.419D-01-0.228D-01 0.138D+00
 Coeff:      0.914D+00
 Gap=     0.437 Goal=   None    Shift=    0.000
 RMSDP=1.61D-09 MaxDP=2.85D-08 DE= 2.27D-13 OVMax= 0.00D+00

 SCF Done:  E(RHF) =  -492.085644982     A.U. after   15 cycles
            NFock= 15  Conv=0.16D-08     -V/T= 2.0090
 KE= 4.876723339441D+02 PE=-2.536617129667D+03 EE= 8.618477895040D+02
 Leave Link  502 at Fri Mar 17 23:26:05 2023, MaxMem=  1073741824 cpu:               6.2 elap:               0.9
 (Enter /Applications/g16/l601.exe)
 Copying SCF densities to generalized density rwf, IOpCl= 0 IROHF=0.

 **********************************************************************

            Population analysis using the SCF Density.

 **********************************************************************

 Orbital symmetries:
       Occupied  (A) (A) (A) (A) (A) (A) (A) (A) (A) (A) (A) (A)
                 (A) (A) (A) (A) (A) (A) (A) (A) (A) (A) (A) (A)
                 (A) (A) (A) (A) (A) (A) (A) (A) (A) (A) (A) (A)
                 (A) (A) (A) (A) (A) (A) (A) (A)
       Virtual   (A) (A) (A) (A) (A) (A) (A) (A) (A) (A) (A) (A)
                 (A) (A) (A) (A) (A) (A) (A) (A) (A) (A) (A) (A)
                 (A) (A) (A) (A) (A) (A) (A)
 The electronic state is 1-A.
 Alpha  occ. eigenvalues --  -11.05730 -11.02986 -11.02971 -11.02962 -11.02956
 Alpha  occ. eigenvalues --  -11.02825 -11.02824 -11.02731 -11.02731 -11.02688
 Alpha  occ. eigenvalues --  -11.02688 -11.02620 -11.02620  -1.12855  -1.07639
 Alpha  occ. eigenvalues --   -1.01795  -0.97951  -0.94920  -0.91020  -0.87828
 Alpha  occ. eigenvalues --   -0.79993  -0.73840  -0.73759  -0.72419  -0.64708
 Alpha  occ. eigenvalues --   -0.61595  -0.59729  -0.56783  -0.56627  -0.55639
 Alpha  occ. eigenvalues --   -0.52911  -0.52664  -0.50673  -0.49916  -0.45672
 Alpha  occ. eigenvalues --   -0.43866  -0.43846  -0.43650  -0.40920  -0.40569
 Alpha  occ. eigenvalues --   -0.32187  -0.28068  -0.26731  -0.22352
 Alpha virt. eigenvalues --    0.21377   0.26332   0.27506   0.32794   0.47063
 Alpha virt. eigenvalues --    0.54794   0.55909   0.56799   0.59304   0.63147
 Alpha virt. eigenvalues --    0.64775   0.67189   0.68779   0.70334   0.70717
 Alpha virt. eigenvalues --    0.72427   0.72754   0.73316   0.75572   0.81423
 Alpha virt. eigenvalues --    0.84223   0.86807   0.86905   0.89718   0.93044
 Alpha virt. eigenvalues --    0.94524   0.97724   1.06752   1.12658   1.13574
 Alpha virt. eigenvalues --    1.18490
          Condensed to atoms (all electrons):
               1          2          3          4          5          6
     1  H    0.619413   0.000002  -0.000006  -0.001364  -0.019862   0.000790
     2  C    0.000002   4.776199   0.514205  -0.029391  -0.011935  -0.031637
     3  C   -0.000006   0.514205   4.776685   0.497573  -0.031528  -0.011963
     4  C   -0.001364  -0.029391   0.497573   4.776540   0.519098  -0.029203
     5  C   -0.019862  -0.011935  -0.031528   0.519098   4.818802   0.487055
     6  C    0.000790  -0.031637  -0.011963  -0.029203   0.487055   4.792713
     7  C   -0.000015   0.500168  -0.029451  -0.008937  -0.028529   0.512057
     8  H   -0.000000   0.390977  -0.025244   0.001321   0.000043   0.001375
     9  H    0.000000  -0.025211   0.390886  -0.025443   0.001371   0.000043
    10  H    0.000176   0.001267  -0.024321   0.390106  -0.025138   0.001328
    11  H    0.000001  -0.024148   0.001266   0.000009   0.001311  -0.024856
    12  C    0.371410   0.000025   0.000758  -0.020843   0.384668  -0.040951
    13  H   -0.019498   0.000002  -0.000006  -0.001365  -0.019863   0.000790
    14  C   -0.019861  -0.000012  -0.000009   0.000912  -0.040414  -0.046685
    15  C   -0.001365   0.000000   0.000000  -0.000005   0.000912   0.001040
    16  C   -0.000006   0.000000  -0.000000   0.000000  -0.000009   0.000029
    17  C    0.000002   0.000000   0.000000   0.000000  -0.000012   0.000794
    18  C   -0.000015   0.000001  -0.000000  -0.000006   0.000907  -0.020983
    19  C    0.000790   0.000794   0.000029   0.001040  -0.046684   0.418033
    20  H    0.000176  -0.000000   0.000000  -0.000000  -0.000000  -0.000021
    21  H    0.000000  -0.000000   0.000000  -0.000000   0.000000   0.000001
    22  H   -0.000000  -0.000000  -0.000000  -0.000000   0.000000  -0.000014
    23  H    0.000001  -0.000005  -0.000000  -0.000000   0.000001  -0.002302
               7          8          9         10         11         12
     1  H   -0.000015  -0.000000   0.000000   0.000176   0.000001   0.371410
     2  C    0.500168   0.390977  -0.025211   0.001267  -0.024148   0.000025
     3  C   -0.029451  -0.025244   0.390886  -0.024321   0.001266   0.000758
     4  C   -0.008937   0.001321  -0.025443   0.390106   0.000009  -0.020843
     5  C   -0.028529   0.000043   0.001371  -0.025138   0.001311   0.384668
     6  C    0.512057   0.001375   0.000043   0.001328  -0.024856  -0.040951
     7  C    4.773262  -0.025498   0.001324   0.000010   0.390091   0.000954
     8  H   -0.025498   0.605320  -0.003656  -0.000028  -0.003463   0.000001
     9  H    0.001324  -0.003656   0.605097  -0.003483  -0.000028  -0.000013
    10  H    0.000010  -0.000028  -0.003483   0.602757   0.000002  -0.002247
    11  H    0.390091  -0.003463  -0.000028   0.000002   0.601014  -0.000020
    12  C    0.000954   0.000001  -0.000013  -0.002247  -0.000020   4.723945
    13  H   -0.000015  -0.000000   0.000000   0.000176   0.000001   0.371411
    14  C    0.000907   0.000000   0.000000  -0.000000   0.000001   0.384668
    15  C   -0.000006  -0.000000  -0.000000  -0.000000  -0.000000  -0.020843
    16  C   -0.000000  -0.000000   0.000000   0.000000  -0.000000   0.000759
    17  C    0.000001  -0.000000  -0.000000  -0.000000  -0.000005   0.000025
    18  C   -0.001316   0.000000  -0.000000   0.000000   0.000056   0.000953
    19  C   -0.020982  -0.000014   0.000001  -0.000021  -0.002302  -0.040950
    20  H    0.000000   0.000000  -0.000000  -0.000000   0.000000  -0.002246
    21  H   -0.000000  -0.000000  -0.000000  -0.000000  -0.000000  -0.000013
    22  H    0.000000   0.000000  -0.000000   0.000000   0.000000   0.000001
    23  H    0.000056   0.000000  -0.000000   0.000000   0.000069  -0.000020
              13         14         15         16         17         18
     1  H   -0.019498  -0.019861  -0.001365  -0.000006   0.000002  -0.000015
     2  C    0.000002  -0.000012   0.000000   0.000000   0.000000   0.000001
     3  C   -0.000006  -0.000009   0.000000  -0.000000   0.000000  -0.000000
     4  C   -0.001365   0.000912  -0.000005   0.000000   0.000000  -0.000006
     5  C   -0.019863  -0.040414   0.000912  -0.000009  -0.000012   0.000907
     6  C    0.000790  -0.046685   0.001040   0.000029   0.000794  -0.020983
     7  C   -0.000015   0.000907  -0.000006  -0.000000   0.000001  -0.001316
     8  H   -0.000000   0.000000  -0.000000  -0.000000  -0.000000   0.000000
     9  H    0.000000   0.000000  -0.000000   0.000000  -0.000000  -0.000000
    10  H    0.000176  -0.000000  -0.000000   0.000000  -0.000000   0.000000
    11  H    0.000001   0.000001  -0.000000  -0.000000  -0.000005   0.000056
    12  C    0.371411   0.384668  -0.020843   0.000759   0.000025   0.000953
    13  H    0.619412  -0.019861  -0.001364  -0.000006   0.000002  -0.000015
    14  C   -0.019861   4.818800   0.519094  -0.031530  -0.011936  -0.028526
    15  C   -0.001364   0.519094   4.776537   0.497575  -0.029390  -0.008935
    16  C   -0.000006  -0.031530   0.497575   4.776685   0.514205  -0.029449
    17  C    0.000002  -0.011936  -0.029390   0.514205   4.776203   0.500165
    18  C   -0.000015  -0.028526  -0.008935  -0.029449   0.500165   4.773265
    19  C    0.000790   0.487059  -0.029203  -0.011964  -0.031640   0.512051
    20  H    0.000176  -0.025137   0.390108  -0.024321   0.001267   0.000010
    21  H    0.000000   0.001371  -0.025444   0.390885  -0.025212   0.001324
    22  H   -0.000000   0.000043   0.001321  -0.025244   0.390977  -0.025499
    23  H    0.000001   0.001311   0.000009   0.001266  -0.024149   0.390092
              19         20         21         22         23
     1  H    0.000790   0.000176   0.000000  -0.000000   0.000001
     2  C    0.000794  -0.000000  -0.000000  -0.000000  -0.000005
     3  C    0.000029   0.000000   0.000000  -0.000000  -0.000000
     4  C    0.001040  -0.000000  -0.000000  -0.000000  -0.000000
     5  C   -0.046684  -0.000000   0.000000   0.000000   0.000001
     6  C    0.418033  -0.000021   0.000001  -0.000014  -0.002302
     7  C   -0.020982   0.000000  -0.000000   0.000000   0.000056
     8  H   -0.000014   0.000000  -0.000000   0.000000   0.000000
     9  H    0.000001  -0.000000  -0.000000  -0.000000  -0.000000
    10  H   -0.000021  -0.000000  -0.000000   0.000000   0.000000
    11  H   -0.002302   0.000000  -0.000000   0.000000   0.000069
    12  C   -0.040950  -0.002246  -0.000013   0.000001  -0.000020
    13  H    0.000790   0.000176   0.000000  -0.000000   0.000001
    14  C    0.487059  -0.025137   0.001371   0.000043   0.001311
    15  C   -0.029203   0.390108  -0.025444   0.001321   0.000009
    16  C   -0.011964  -0.024321   0.390885  -0.025244   0.001266
    17  C   -0.031640   0.001267  -0.025212   0.390977  -0.024149
    18  C    0.512051   0.000010   0.001324  -0.025499   0.390092
    19  C    4.792708   0.001328   0.000043   0.001375  -0.024851
    20  H    0.001328   0.602751  -0.003483  -0.000028   0.000002
    21  H    0.000043  -0.003483   0.605100  -0.003656  -0.000028
    22  H    0.001375  -0.000028  -0.003656   0.605323  -0.003463
    23  H   -0.024851   0.000002  -0.000028  -0.003463   0.601005
 Mulliken charges:
               1
     1  H    0.069234
     2  C   -0.061298
     3  C   -0.058874
     4  C   -0.070041
     5  C    0.009806
     6  C   -0.007432
     7  C   -0.064081
     8  H    0.058866
     9  H    0.059112
    10  H    0.059416
    11  H    0.061002
    12  C   -0.111431
    13  H    0.069234
    14  C    0.009807
    15  C   -0.070040
    16  C   -0.058874
    17  C   -0.061296
    18  C   -0.064080
    19  C   -0.007430
    20  H    0.059420
    21  H    0.059111
    22  H    0.058864
    23  H    0.061006
 Sum of Mulliken charges =  -0.00000
 Mulliken charges with hydrogens summed into heavy atoms:
               1
     2  C   -0.002432
     3  C    0.000239
     4  C   -0.010625
     5  C    0.009806
     6  C   -0.007432
     7  C   -0.003079
    12  C    0.027037
    14  C    0.009807
    15  C   -0.010621
    16  C    0.000237
    17  C   -0.002432
    18  C   -0.003074
    19  C   -0.007430
 Electronic spatial extent (au):  <R**2>=           2336.7382
 Charge=             -0.0000 electrons
 Dipole moment (field-independent basis, Debye):
    X=             -0.0001    Y=              0.3920    Z=              0.0001  Tot=              0.3920
 Quadrupole moment (field-independent basis, Debye-Ang):
   XX=            -67.1332   YY=            -65.1176   ZZ=            -72.6364
   XY=              0.0001   XZ=              0.0002   YZ=              0.0001
 Traceless Quadrupole moment (field-independent basis, Debye-Ang):
   XX=              1.1625   YY=              3.1781   ZZ=             -4.3407
   XY=              0.0001   XZ=              0.0002   YZ=              0.0001
 Octapole moment (field-independent basis, Debye-Ang**2):
  XXX=              0.0010  YYY=             -1.0808  ZZZ=              0.0002  XYY=             -0.0007
  XXY=             -0.1759  XXZ=              0.0003  XZZ=              0.0000  YZZ=              2.1667
  YYZ=              0.0006  XYZ=              0.0010
 Hexadecapole moment (field-independent basis, Debye-Ang**3):
 XXXX=          -2166.9466 YYYY=           -660.3455 ZZZZ=            -66.1614 XXXY=             -0.0023
 XXXZ=              0.0548 YYYX=              0.0013 YYYZ=             -0.0025 ZZZX=              0.0556
 ZZZY=             -0.0034 XXYY=           -471.5010 XXZZ=           -416.5193 YYZZ=           -129.5961
 XXYZ=             -0.0050 YYXZ=              0.0156 ZZXY=              0.0001
 N-N= 6.950113612369D+02 E-N=-2.536617129884D+03  KE= 4.876723339441D+02
 No NMR shielding tensors so no spin-rotation constants.
 Leave Link  601 at Fri Mar 17 23:26:05 2023, MaxMem=  1073741824 cpu:               0.5 elap:               0.1
 (Enter /Applications/g16/l701.exe)
 ... and contract with generalized density number  0.
 Compute integral first derivatives.
 Leave Link  701 at Fri Mar 17 23:26:05 2023, MaxMem=  1073741824 cpu:               0.5 elap:               0.1
 (Enter /Applications/g16/l702.exe)
 L702 exits ... SP integral derivatives will be done elsewhere.
 Leave Link  702 at Fri Mar 17 23:26:05 2023, MaxMem=  1073741824 cpu:               0.1 elap:               0.0
 (Enter /Applications/g16/l703.exe)
 Integral derivatives from FoFJK, PRISM(SPDF).
 Compute integral first derivatives, UseDBF=F ICtDFT=           0.
 Calling FoFJK, ICntrl=      2127 FMM=F ISym2X=0 I1Cent= 0 IOpClX= 0 NMat=1 NMatS=1 NMatT=0.
 FoFJK:  IHMeth= 1 ICntrl=    2127 DoSepK=F KAlg= 0 I1Cent=           0 FoldK=F
 IRaf=         0 NMat=       1 IRICut=       1 DoRegI=T DoRafI=F ISym2E= 0 IDoP0=0 IntGTp=1.
 FoFCou: FMM=F IPFlag=           0 FMFlag=      100000 FMFlg1=         800
         NFxFlg=           0 DoJE=F BraDBF=F KetDBF=F FulRan=T
         wScrn=  0.000000 ICntrl=      2127 IOpCl=  0 I1Cent=           0 NGrid=           0
         NMat0=    1 NMatS0=      1 NMatT0=    0 NMatD0=    1 NMtDS0=    0 NMtDT0=    0
 Symmetry not used in FoFCou.
 Leave Link  703 at Fri Mar 17 23:26:05 2023, MaxMem=  1073741824 cpu:               1.4 elap:               0.2
 (Enter /Applications/g16/l716.exe)
 Dipole        =-2.30262221D-05 1.54239481D-01 2.25928236D-05
 ***** Axes restored to original set *****
 -------------------------------------------------------------------
 Center     Atomic                   Forces (Hartrees/Bohr)
 Number     Number              X              Y              Z
 -------------------------------------------------------------------
      1        1          -0.009773069   -0.003226353    0.021186181
      2        6          -0.002612517   -0.006317682    0.000001066
      3        6           0.001409595   -0.007074888   -0.000003611
      4        6           0.003959842    0.000434555    0.000009990
      5        6          -0.026518007   -0.023842685   -0.000002149
      6        6           0.027369788   -0.022486986    0.000006445
      7        6          -0.004656382   -0.002979052   -0.000008941
      8        1           0.008204592    0.012911278   -0.000008704
      9        1          -0.008144001    0.012825843    0.000005248
     10        1          -0.014312832   -0.000056299   -0.000007049
     11        1           0.014605865   -0.000564638    0.000010456
     12        6           0.042902498    0.014165990    0.000000875
     13        1          -0.009770983   -0.003219978   -0.021185366
     14        6          -0.035487844    0.003363709    0.000002813
     15        6           0.003434499    0.002000187   -0.000020741
     16        6          -0.003084076    0.006535613    0.000028651
     17        6          -0.005867069    0.003510017   -0.000029328
     18        6          -0.005492744   -0.000356185    0.000015904
     19        6           0.008585521    0.034348815   -0.000001864
     20        1          -0.011530704   -0.008475528   -0.000006873
     21        1           0.001092381   -0.015155687    0.000015592
     22        1           0.014279347   -0.005483673   -0.000012191
     23        1           0.011406299    0.009143629    0.000003597
 -------------------------------------------------------------------
 Cartesian Forces:  Max     0.042902498 RMS     0.012193145
 Leave Link  716 at Fri Mar 17 23:26:05 2023, MaxMem=  1073741824 cpu:               0.2 elap:               0.0
 (Enter /Applications/g16/l103.exe)

 GradGradGradGradGradGradGradGradGradGradGradGradGradGradGradGradGradGrad
 Berny optimization.
 FormGI is forming the generalized inverse of G from B-inverse, IUseBI=4.
 Internal  Forces:  Max     0.023207271 RMS     0.006726820
 Search for a local minimum.
 Step number   1 out of a maximum of  138
 All quantities printed in internal units (Hartrees-Bohrs-Radians)
 RMS Force = .67268D-02 SwitMx=.10000D-02 MixMth= 1
 Mixed Optimization -- RFO/linear search
 Second derivative matrix not updated -- first step.
 ITU=  0
     Eigenvalues ---    0.00975   0.01391   0.01557   0.01632   0.01759
     Eigenvalues ---    0.01863   0.02101   0.02101   0.02133   0.02133
     Eigenvalues ---    0.02137   0.02137   0.02183   0.02183   0.02207
     Eigenvalues ---    0.02207   0.02226   0.02228   0.05001   0.07225
     Eigenvalues ---    0.08553   0.09339   0.16000   0.16000   0.16000
     Eigenvalues ---    0.16000   0.16000   0.16000   0.16000   0.16000
     Eigenvalues ---    0.22000   0.22000   0.22592   0.22603   0.23764
     Eigenvalues ---    0.24485   0.24616   0.25000   0.30822   0.31084
     Eigenvalues ---    0.31621   0.31621   0.33677   0.33678   0.33678
     Eigenvalues ---    0.33678   0.33791   0.33792   0.33808   0.33808
     Eigenvalues ---    0.35800   0.36351   0.38949   0.42180   0.42212
     Eigenvalues ---    0.44092   0.44125   0.46119   0.46146   0.47277
     Eigenvalues ---    0.47282   0.48252   0.48262
 RFO step:  Lambda=-1.61053314D-02 EMin= 9.75316238D-03
 Linear search not attempted -- first point.
 Iteration  1 RMS(Cart)=  0.02258018 RMS(Int)=  0.00017788
 Iteration  2 RMS(Cart)=  0.00016618 RMS(Int)=  0.00001318
 Iteration  3 RMS(Cart)=  0.00000004 RMS(Int)=  0.00001318
 ITry= 1 IFail=0 DXMaxC= 8.32D-02 DCOld= 1.00D+10 DXMaxT= 3.00D-01 DXLimC= 3.00D+00 Rises=F
 Variable       Old X    -DE/DX   Delta X   Delta X   Delta X     New X
                                 (Linear)    (Quad)   (Total)
    R1        2.11543  -0.02321   0.00000  -0.06984  -0.06984   2.04560
    R2        2.62992  -0.01282   0.00000  -0.02588  -0.02588   2.60404
    R3        2.64905  -0.00944   0.00000  -0.01982  -0.01983   2.62922
    R4        2.07878  -0.01528   0.00000  -0.04331  -0.04331   2.03547
    R5        2.65123  -0.00798   0.00000  -0.01687  -0.01687   2.63436
    R6        2.07876  -0.01518   0.00000  -0.04301  -0.04301   2.03575
    R7        2.61116  -0.00737   0.00000  -0.01490  -0.01490   2.59626
    R8        2.07656  -0.01431   0.00000  -0.04041  -0.04041   2.03615
    R9        2.70043  -0.02314   0.00000  -0.05488  -0.05486   2.64557
   R10        2.84221   0.01775   0.00000   0.05347   0.05344   2.89565
   R11        2.61702  -0.00409   0.00000  -0.00839  -0.00839   2.60863
   R12        2.76115   0.02216   0.00000   0.05700   0.05704   2.81819
   R13        2.07683  -0.01460   0.00000  -0.04125  -0.04125   2.03559
   R14        2.11543  -0.02320   0.00000  -0.06983  -0.06983   2.04560
   R15        2.84223   0.01774   0.00000   0.05344   0.05341   2.89564
   R16        2.61116  -0.00737   0.00000  -0.01490  -0.01489   2.59627
   R17        2.70042  -0.02315   0.00000  -0.05489  -0.05486   2.64556
   R18        2.65122  -0.00798   0.00000  -0.01685  -0.01686   2.63436
   R19        2.07655  -0.01431   0.00000  -0.04040  -0.04040   2.03615
   R20        2.62992  -0.01282   0.00000  -0.02588  -0.02589   2.60403
   R21        2.07877  -0.01518   0.00000  -0.04301  -0.04301   2.03575
   R22        2.64907  -0.00945   0.00000  -0.01983  -0.01984   2.62923
   R23        2.07878  -0.01528   0.00000  -0.04330  -0.04330   2.03548
   R24        2.61705  -0.00410   0.00000  -0.00843  -0.00842   2.60863
   R25        2.07684  -0.01460   0.00000  -0.04125  -0.04125   2.03558
    A1        2.10995  -0.00184   0.00000  -0.00659  -0.00661   2.10335
    A2        2.09101   0.00019   0.00000  -0.00084  -0.00084   2.09018
    A3        2.08222   0.00165   0.00000   0.00744   0.00744   2.08966
    A4        2.11000  -0.00168   0.00000  -0.00608  -0.00609   2.10391
    A5        2.09122   0.00012   0.00000  -0.00102  -0.00102   2.09020
    A6        2.08196   0.00156   0.00000   0.00710   0.00711   2.08907
    A7        2.07124   0.00179   0.00000   0.00699   0.00700   2.07824
    A8        2.09904  -0.00111   0.00000  -0.00475  -0.00476   2.09429
    A9        2.11290  -0.00067   0.00000  -0.00224  -0.00224   2.11066
   A10        2.10257   0.00064   0.00000   0.00110   0.00112   2.10369
   A11        2.25991  -0.00020   0.00000   0.00057   0.00057   2.26048
   A12        1.92071  -0.00045   0.00000  -0.00167  -0.00169   1.91901
   A13        2.10249  -0.00101   0.00000  -0.00413  -0.00414   2.09835
   A14        1.89032   0.00251   0.00000   0.00775   0.00780   1.89812
   A15        2.29038  -0.00151   0.00000  -0.00362  -0.00365   2.28672
   A16        2.07012   0.00210   0.00000   0.00872   0.00872   2.07883
   A17        2.10308  -0.00174   0.00000  -0.00828  -0.00828   2.09480
   A18        2.10999  -0.00036   0.00000  -0.00044  -0.00044   2.10955
   A19        1.94175   0.00194   0.00000   0.01127   0.01132   1.95306
   A20        1.89385  -0.00340   0.00000  -0.03058  -0.03058   1.86328
   A21        1.94176   0.00194   0.00000   0.01124   0.01129   1.95304
   A22        1.94173   0.00194   0.00000   0.01128   0.01132   1.95305
   A23        1.80273  -0.00414   0.00000  -0.01219  -0.01222   1.79051
   A24        1.94177   0.00194   0.00000   0.01124   0.01128   1.95305
   A25        2.25990  -0.00019   0.00000   0.00058   0.00058   2.26048
   A26        1.92071  -0.00045   0.00000  -0.00167  -0.00170   1.91901
   A27        2.10258   0.00064   0.00000   0.00109   0.00112   2.10370
   A28        2.07121   0.00179   0.00000   0.00702   0.00703   2.07824
   A29        2.11292  -0.00067   0.00000  -0.00226  -0.00226   2.11066
   A30        2.09906  -0.00112   0.00000  -0.00477  -0.00477   2.09429
   A31        2.11003  -0.00169   0.00000  -0.00611  -0.00612   2.10391
   A32        2.08195   0.00156   0.00000   0.00713   0.00713   2.08908
   A33        2.09121   0.00013   0.00000  -0.00102  -0.00101   2.09020
   A34        2.10998  -0.00185   0.00000  -0.00661  -0.00663   2.10335
   A35        2.09102   0.00019   0.00000  -0.00086  -0.00085   2.09017
   A36        2.08219   0.00166   0.00000   0.00747   0.00748   2.08967
   A37        2.07006   0.00212   0.00000   0.00878   0.00878   2.07884
   A38        2.10305  -0.00174   0.00000  -0.00826  -0.00826   2.09479
   A39        2.11008  -0.00038   0.00000  -0.00052  -0.00052   2.10956
   A40        1.89031   0.00252   0.00000   0.00778   0.00782   1.89812
   A41        2.29036  -0.00150   0.00000  -0.00361  -0.00364   2.28672
   A42        2.10252  -0.00102   0.00000  -0.00417  -0.00418   2.09834
    D1        0.00005  -0.00000   0.00000  -0.00005  -0.00005   0.00000
    D2       -3.14151  -0.00000   0.00000  -0.00006  -0.00006  -3.14157
    D3       -3.14149  -0.00000   0.00000  -0.00007  -0.00007  -3.14156
    D4        0.00013  -0.00000   0.00000  -0.00008  -0.00008   0.00006
    D5       -0.00007   0.00000   0.00000   0.00007   0.00007   0.00001
    D6        3.14145   0.00000   0.00000   0.00010   0.00010   3.14155
    D7        3.14147   0.00000   0.00000   0.00009   0.00009   3.14156
    D8       -0.00019   0.00000   0.00000   0.00012   0.00012  -0.00008
    D9        0.00002  -0.00000   0.00000  -0.00001  -0.00001   0.00000
   D10        3.14148   0.00000   0.00000   0.00009   0.00009   3.14157
   D11        3.14158  -0.00000   0.00000  -0.00001  -0.00000   3.14158
   D12       -0.00014   0.00000   0.00000   0.00010   0.00010  -0.00004
   D13       -0.00007   0.00000   0.00000   0.00006   0.00006  -0.00001
   D14        3.14147   0.00000   0.00000   0.00008   0.00008   3.14155
   D15       -3.14153  -0.00000   0.00000  -0.00005  -0.00005  -3.14158
   D16        0.00001  -0.00000   0.00000  -0.00003  -0.00003  -0.00002
   D17        0.00005  -0.00000   0.00000  -0.00003  -0.00003   0.00002
   D18        3.14152   0.00000   0.00000   0.00003   0.00003   3.14155
   D19       -3.14149  -0.00000   0.00000  -0.00005  -0.00005  -3.14155
   D20       -0.00002   0.00000   0.00000   0.00001   0.00001  -0.00001
   D21        1.05701  -0.00083   0.00000  -0.01176  -0.01175   1.04526
   D22       -1.05687   0.00083   0.00000   0.01170   0.01169  -1.04517
   D23       -3.14153  -0.00000   0.00000  -0.00002  -0.00002  -3.14155
   D24       -2.08463  -0.00083   0.00000  -0.01174  -0.01173  -2.09636
   D25        2.08468   0.00083   0.00000   0.01172   0.01171   2.09639
   D26        0.00002  -0.00000   0.00000  -0.00000  -0.00000   0.00001
   D27        0.00002  -0.00000   0.00000  -0.00003  -0.00003  -0.00002
   D28       -3.14150  -0.00000   0.00000  -0.00006  -0.00006  -3.14156
   D29       -3.14142  -0.00000   0.00000  -0.00011  -0.00011  -3.14153
   D30        0.00024  -0.00001   0.00000  -0.00014  -0.00014   0.00011
   D31        0.00002  -0.00000   0.00000  -0.00001  -0.00001   0.00001
   D32       -3.14149  -0.00000   0.00000  -0.00006  -0.00006  -3.14155
   D33        3.14148   0.00000   0.00000   0.00006   0.00006   3.14153
   D34       -0.00004   0.00000   0.00000   0.00001   0.00001  -0.00003
   D35       -1.05690   0.00084   0.00000   0.01173   0.01172  -1.04518
   D36        2.08464   0.00084   0.00000   0.01175   0.01174   2.09638
   D37       -3.14155  -0.00000   0.00000  -0.00003  -0.00003  -3.14157
   D38       -0.00000  -0.00000   0.00000  -0.00000  -0.00000  -0.00000
   D39        1.05701  -0.00084   0.00000  -0.01178  -0.01177   1.04524
   D40       -2.08463  -0.00084   0.00000  -0.01176  -0.01175  -2.09638
   D41        3.14147   0.00000   0.00000   0.00012   0.00012  -3.14159
   D42       -0.00004   0.00000   0.00000   0.00001   0.00001  -0.00003
   D43       -0.00007   0.00000   0.00000   0.00010   0.00010   0.00003
   D44       -3.14158  -0.00000   0.00000  -0.00002  -0.00002   3.14159
   D45       -0.00001   0.00000   0.00000   0.00001   0.00001  -0.00000
   D46        3.14151   0.00000   0.00000   0.00005   0.00005   3.14156
   D47        3.14154   0.00000   0.00000   0.00003   0.00003   3.14157
   D48       -0.00013   0.00000   0.00000   0.00007   0.00007  -0.00005
   D49        0.00035  -0.00001   0.00000  -0.00034  -0.00034   0.00001
   D50       -3.14135  -0.00001   0.00000  -0.00019  -0.00019  -3.14154
   D51       -3.14132  -0.00001   0.00000  -0.00023  -0.00023  -3.14155
   D52        0.00016  -0.00000   0.00000  -0.00007  -0.00007   0.00009
   D53       -0.00045   0.00002   0.00000   0.00043   0.00043  -0.00002
   D54        3.14128   0.00001   0.00000   0.00026   0.00026   3.14154
   D55        3.14125   0.00001   0.00000   0.00027   0.00027   3.14152
   D56       -0.00020   0.00000   0.00000   0.00010   0.00010  -0.00010
   D57        0.00025  -0.00001   0.00000  -0.00025  -0.00025   0.00000
   D58       -3.14138  -0.00001   0.00000  -0.00019  -0.00019  -3.14158
   D59       -3.14148  -0.00000   0.00000  -0.00008  -0.00008  -3.14156
   D60        0.00007  -0.00000   0.00000  -0.00002  -0.00002   0.00005
   D61        3.14154   0.00000   0.00000   0.00006   0.00006  -3.14159
   D62        0.00003   0.00000   0.00000   0.00000   0.00000   0.00004
   D63       -0.00001   0.00000   0.00000   0.00000   0.00000  -0.00001
   D64       -3.14152  -0.00000   0.00000  -0.00005  -0.00005  -3.14157
         Item               Value     Threshold  Converged?
 Maximum Force            0.023207     0.000450     NO 
 RMS     Force            0.006727     0.000300     NO 
 Maximum Displacement     0.083183     0.001800     NO 
 RMS     Displacement     0.022550     0.001200     NO 
 Predicted change in Energy=-8.421990D-03
 Lowest energy point so far.  Saving SCF results.
 GradGradGradGradGradGradGradGradGradGradGradGradGradGradGradGradGradGrad

 Leave Link  103 at Fri Mar 17 23:26:05 2023, MaxMem=  1073741824 cpu:               1.0 elap:               0.2
 (Enter /Applications/g16/l202.exe)
                          Input orientation:                          
 ---------------------------------------------------------------------
 Center     Atomic      Atomic             Coordinates (Angstroms)
 Number     Number       Type             X           Y           Z
 ---------------------------------------------------------------------
      1          1           0       -1.068582    1.151190   -0.868806
      2          6           0       -3.622140   -2.864948   -0.000177
      3          6           0       -2.244166   -2.872902   -0.000166
      4          6           0       -1.528769   -1.676423   -0.000135
      5          6           0       -2.216740   -0.487202   -0.000113
      6          6           0       -3.616663   -0.475396   -0.000137
      7          6           0       -4.321629   -1.662242   -0.000160
      8          1           0       -4.162151   -3.796929   -0.000166
      9          1           0       -1.714851   -3.811169   -0.000199
     10          1           0       -0.451411   -1.693014   -0.000108
     11          1           0       -5.398812   -1.665229   -0.000207
     12          6           0       -1.681753    0.948683   -0.000023
     13          1           0       -1.068591    1.151071    0.868796
     14          6           0       -2.966513    1.783760    0.000018
     15          6           0       -3.121859    3.148834    0.000075
     16          6           0       -4.409022    3.684155    0.000107
     17          6           0       -5.511374    2.857298    0.000090
     18          6           0       -5.357249    1.474535    0.000012
     19          6           0       -4.084206    0.940742   -0.000046
     20          1           0       -2.266166    3.803635    0.000130
     21          1           0       -4.542422    4.753137    0.000103
     22          1           0       -6.500144    3.284543    0.000165
     23          1           0       -6.224460    0.835573   -0.000017
 ---------------------------------------------------------------------
                    Distance matrix (angstroms):
                    1          2          3          4          5
     1  H    0.000000
     2  C    4.837823   0.000000
     3  C    4.281337   1.377998   0.000000
     4  C    2.993619   2.407238   1.394042   0.000000
     5  C    2.181106   2.762033   2.385857   1.373881   0.000000
     6  C    3.145328   2.389558   2.762568   2.408686   1.399973
     7  C    4.387740   1.391325   2.404486   2.792896   2.410659
     8  H    5.899881   1.077127   2.128966   3.381013   3.839130
     9  H    5.079089   2.129105   1.077274   2.142841   3.361644
    10  H    3.037273   3.380378   2.146184   1.077486   2.137841
    11  H    5.238089   2.143802   3.377909   3.870059   3.393130
    12  C    1.082484   4.278888   3.862747   2.629560   1.532311
    13  H    1.737601   4.837782   4.281288   2.993581   2.181097
    14  C    2.181087   4.694713   4.712354   3.746995   2.391533
    15  C    2.993574   6.034555   6.085364   5.081441   3.746999
    16  C    4.281292   6.596205   6.905186   6.085364   4.712358
    17  C    4.837787   6.026052   6.596199   6.034548   4.694710
    18  C    4.387718   4.673512   5.347102   4.958407   3.702866
    19  C    3.145317   3.833638   4.234339   3.657843   2.350842
    20  H    3.037223   6.805047   6.676573   5.529448   4.291122
    21  H    5.079035   7.673470   7.964826   7.100800   5.733233
    22  H    5.899845   6.789634   7.485150   7.023229   5.707330
    23  H    5.238080   4.523927   5.440177   5.325377   4.220374
                    6          7          8          9         10
     6  C    0.000000
     7  C    1.380428   0.000000
     8  H    3.366028   2.140636   0.000000
     9  H    3.839827   3.378340   2.447342   0.000000
    10  H    3.391374   3.870340   4.265683   2.466346   0.000000
    11  H    2.142838   1.077187   2.464442   4.263406   4.947479
    12  C    2.402474   3.712934   5.354737   4.759967   2.914155
    13  H    3.145331   4.387718   5.899823   5.079038   3.037223
    14  C    2.350847   3.702873   5.707332   5.733227   4.291118
    15  C    3.657851   4.958417   7.023236   7.100797   5.529447
    16  C    4.234347   5.347111   7.485156   7.964825   6.676573
    17  C    3.833638   4.673514   6.789635   7.673464   6.805039
    18  C    2.613785   3.303314   5.405238   6.419170   5.839573
    19  C    1.491323   2.613790   4.738313   5.309850   4.487078
    20  H    4.487087   5.839584   7.833476   7.634736   5.788479
    21  H    5.309858   6.419178   8.558519   9.019008   7.634739
    22  H    4.738312   5.405239   7.457443   8.558514   7.833469
    23  H    2.918774   3.140039   5.070818   6.475244   6.302526
                   11         12         13         14         15
    11  H    0.000000
    12  C    4.544124   0.000000
    13  H    5.238084   1.082485   0.000000
    14  C    4.220379   1.532306   2.181095   0.000000
    15  C    5.325384   2.629558   2.993600   1.373885   0.000000
    16  C    5.440183   3.862746   4.281309   2.385861   1.394043
    17  C    4.523928   4.278880   4.837786   2.762028   2.407233
    18  C    3.140039   3.712923   4.387710   2.410651   2.792892
    19  C    2.918780   2.402467   3.145323   1.399970   2.408689
    20  H    6.302535   2.914154   3.037246   2.137846   1.077486
    21  H    6.475248   4.759969   5.079076   3.361650   2.142846
    22  H    5.070816   5.354730   5.899829   3.839127   3.381010
    23  H    2.633573   4.544115   5.238067   3.393122   3.870053
                   16         17         18         19         20
    16  C    0.000000
    17  C    1.377995   0.000000
    18  C    2.404486   1.391326   0.000000
    19  C    2.762575   2.389560   1.380425   0.000000
    20  H    2.146185   3.380374   3.870337   3.391376   0.000000
    21  H    1.077274   2.129101   3.378339   3.839833   2.466353
    22  H    2.128963   1.077128   2.140639   3.366030   4.265681
    23  H    3.377904   2.143797   1.077185   2.142836   4.947473
                   21         22         23
    21  H    0.000000
    22  H    2.447334   0.000000
    23  H    4.263398   2.464438   0.000000
 Stoichiometry    C13H10
 Framework group  C1[X(C13H10)]
 Deg. of freedom    63
 Full point group                 C1      NOp   1
 RotChk:  IX=0 Diff= 3.94D-06
 Largest Abelian subgroup         C1      NOp   1
 Largest concise Abelian subgroup C1      NOp   1
                         Standard orientation:                         
 ---------------------------------------------------------------------
 Center     Atomic      Atomic             Coordinates (Angstroms)
 Number     Number       Type             X           Y           Z
 ---------------------------------------------------------------------
      1          1           0       -0.000066    2.482625   -0.868757
      2          6           0        3.013028   -1.201297   -0.000129
      3          6           0        3.452591    0.104713   -0.000118
      4          6           0        2.540718    1.159151   -0.000087
      5          6           0        1.195766    0.878699   -0.000065
      6          6           0        0.745664   -0.446946   -0.000089
      7          6           0        1.651660   -1.488460   -0.000111
      8          1           0        3.728725   -2.006269   -0.000118
      9          1           0        4.509502    0.313185   -0.000151
     10          1           0        2.894236    2.176993   -0.000060
     11          1           0        1.316789   -2.512273   -0.000158
     12          6           0       -0.000004    1.836879    0.000025
     13          1           0        0.000044    2.482579    0.868844
     14          6           0       -1.195767    0.878696    0.000066
     15          6           0       -2.540723    1.159147    0.000124
     16          6           0       -3.452595    0.104706    0.000155
     17          6           0       -3.013024   -1.201299    0.000138
     18          6           0       -1.651653   -1.488456    0.000060
     19          6           0       -0.745659   -0.446943    0.000002
     20          1           0       -2.894243    2.176988    0.000178
     21          1           0       -4.509507    0.313168    0.000151
     22          1           0       -3.728718   -2.006274    0.000213
     23          1           0       -1.316784   -2.512267    0.000031
 ---------------------------------------------------------------------
 Rotational constants (GHZ):           2.2102099           0.5856463           0.4642655
 Leave Link  202 at Fri Mar 17 23:26:05 2023, MaxMem=  1073741824 cpu:               0.0 elap:               0.0
 (Enter /Applications/g16/l301.exe)
 Standard basis: STO-3G (5D, 7F)
 Ernie: Thresh=  0.10000D-02 Tol=  0.10000D-05 Strict=F.
 There are    75 symmetry adapted cartesian basis functions of A   symmetry.
 There are    75 symmetry adapted basis functions of A   symmetry.
    75 basis functions,   225 primitive gaussians,    75 cartesian basis functions
    44 alpha electrons       44 beta electrons
       nuclear repulsion energy       697.5356896146 Hartrees.
 IExCor=    0 DFT=F Ex=HF Corr=None ExCW=0 ScaHFX=  1.000000
 ScaDFX=  1.000000  1.000000  1.000000  1.000000 ScalE2=  1.000000  1.000000
 IRadAn=      5 IRanWt=     -1 IRanGd=            0 ICorTp=0 IEmpDi=  4
 NAtoms=   23 NActive=   23 NUniq=   23 SFac= 1.00D+00 NAtFMM=   60 NAOKFM=F Big=F
 Integral buffers will be    131072 words long.
 Raffenetti 1 integral format.
 Two-electron integral symmetry is turned on.
 Leave Link  301 at Fri Mar 17 23:26:06 2023, MaxMem=  1073741824 cpu:               0.2 elap:               0.0
 (Enter /Applications/g16/l302.exe)
 NPDir=0 NMtPBC=     1 NCelOv=     1 NCel=       1 NClECP=     1 NCelD=      1
[...]
 758,-0.00002803,-0.00009833,0.00002641,0.00004577,-0.00002317,0.000014
 02,-0.00006902,-0.00028111,0.00001657,-0.00002168,0.00002504,-0.185899
 35,-0.03933414,-0.17420772,0.19318924,0.00531289,0.00281260,0.00816842
 ,-0.00045199,-0.00047899,-0.00020805,-0.00036875,0.00087149,0.00141341
 ,-0.00007126,0.00145358,0.00114098,-0.02324380,-0.00580494,-0.03356491
 ,0.00014740,-0.00442127,0.00075797,-0.00043754,0.00027471,0.00151770,0
 .00009625,0.00017825,-0.00011658,0.00006977,-0.00011604,-0.00014901,-0
 .00008311,-0.00005832,-0.00077011,-0.00020917,-0.00027409,0.00007406,-
 0.03933442,-0.07972493,-0.05750587,0.04168367,0.08067335,-0.02473772,-
 0.00816640,-0.02273526,0.00025845,-0.00006765,0.00001064,-0.00042271,-
 0.00015866,-0.00020661,0.00046464,0.00072918,0.00037297,0.00387779,0.0
 0181088,0.00632450,0.00056009,0.00096124,-0.00038442,0.00018389,0.0000
 6019,-0.00036934,-0.00000072,-0.00000577,0.00003412,0.00003177,0.00003
 137,0.00001692,-0.00004479,-0.00004028,0.00013832,0.00003240,0.0000653
 7,0.00001419,-0.16625711,-0.05488096,-0.31808486,0.18006672,0.05943988
 ,0.32891569,-0.01760855,0.01449733,-0.00419421,0.00310710,-0.00174623,
 -0.00000007,-0.00145077,-0.00069675,-0.00000006,-0.00359381,-0.0020069
 2,-0.00000011,0.00737355,0.00937500,0.00000044,0.01045255,-0.01760484,
 -0.00000079,-0.00245808,0.00779854,0.00000034,-0.00013956,0.00042041,0
 .00000003,-0.00020339,-0.00044128,-0.00000001,-0.00025465,0.00007492,0
 .,-0.00017654,-0.00021797,-0.00000001,-0.25112956,0.09641124,0.0000038
 8,-0.01760839,0.01449691,0.00419533,0.81710931,-0.00675607,0.00641447,
 -0.00085416,0.00233061,-0.00186135,-0.00000008,-0.00070409,-0.00259387
 ,-0.00000012,-0.00572797,-0.00173240,-0.00000009,0.03046165,-0.0463801
 5,-0.00000197,-0.02471673,-0.05628877,-0.00000259,0.00599413,0.0020028
 0,0.00000003,0.00020457,-0.00040701,-0.00000002,-0.00035225,0.00005701
 ,0.,0.00002195,0.00019767,0.,0.00047144,0.00029795,0.00000001,0.070260
 12,-0.16953539,-0.00000218,-0.00675390,0.00641246,0.00085415,-0.044563
 07,0.95680203,0.02570910,-0.02272373,0.00632485,0.00000014,-0.00000009
 ,-0.00018803,-0.00000007,-0.00000013,0.00009309,-0.00000021,-0.0000000
 3,0.00029735,0.00000116,-0.00000205,0.00364722,-0.00000092,-0.00000283
 ,0.00894995,0.00000024,0.00000007,0.00193421,0.,0.,-0.00022801,-0.0000
 0001,0.,-0.00001716,0.,0.,0.00002129,0.00000002,0.,0.00015420,0.000002
 81,-0.00000238,-0.10368413,-0.02570959,0.02272375,0.00632672,-0.000003
 27,0.00002879,0.22553957,0.00151272,0.00011505,-0.00080744,-0.00041092
 ,-0.00016043,-0.00000001,-0.00015721,0.00051193,0.00000002,0.00171976,
 0.00084224,0.00000007,-0.00663402,0.00209539,0.00000006,-0.00583445,-0
 .00507361,-0.00000016,0.00160513,-0.00079503,-0.00000003,0.00009511,-0
 .00016590,-0.00000001,0.00013120,0.00017090,0.,0.00011486,-0.00007987,
 0.,0.00001046,0.00008308,0.,0.00126314,0.03438908,0.00000143,0.0015127
 4,0.00011497,0.00080744,-0.19287435,-0.06829554,-0.00000342,0.94302440
 ,-0.00138982,0.00047631,0.00030917,-0.00099485,-0.00039998,0.,0.000018
 42,0.00059860,0.00000002,0.00050125,-0.00009307,-0.00000007,-0.0016256
 5,0.00130781,0.00000005,-0.00170348,0.00145468,-0.00000016,-0.00012709
 ,-0.00136937,-0.00000009,0.00005366,0.00007007,0.,0.00008536,-0.000218
 98,0.,-0.00012146,0.00001018,0.,-0.00022087,0.00003879,0.,0.00380222,-
 0.00816577,-0.00000078,-0.00139001,0.00047651,-0.00030913,0.09659241,-
 0.42748092,-0.00001260,0.10280574,0.91022525,-0.00085778,0.00078448,0.
 00037294,-0.00000004,0.00000002,-0.00046878,0.,0.,0.00002294,0.,-0.000
 00002,0.00118545,0.,-0.00000003,0.00029735,-0.00000007,-0.00000012,0.0
 0739058,-0.00000003,-0.00000009,0.00011526,0.,0.,-0.00004022,0.,0.,-0.
 00025109,0.,0.,0.00005329,0.,0.,0.00020414,0.00000015,-0.00000075,0.00
 271375,0.00085761,-0.00078440,0.00037285,0.00000527,-0.00001211,-0.085
 10641,-0.00000296,0.00003158,0.18561193,-0.00013241,-0.00037533,0.0004
 3409,-0.00023479,-0.00061228,-0.00000003,-0.00021277,0.00050798,0.0000
 0002,0.00036444,-0.00019196,-0.00000004,-0.00252613,0.00075429,0.00000
 004,0.00100108,-0.00230560,0.00000006,0.00010139,0.00027554,-0.0000000
 1,0.00002245,0.00005948,0.,0.00007135,-0.00017929,0.,-0.00007653,0.000
 01109,0.,-0.00019485,0.00003772,0.,0.00652061,-0.00226407,-0.00000023,
 -0.00013248,-0.00037525,-0.00043411,0.05926820,0.19315528,0.00000864,-
 0.37524524,-0.01921221,0.00000609,0.82889317,-0.00059788,0.00070168,0.
 00012421,0.00094344,-0.00009175,0.,-0.00025274,-0.00055718,-0.00000002
 ,-0.00068546,0.00007695,0.00000001,0.00074695,-0.00151851,-0.00000006,
 0.00034274,-0.00142194,0.00000001,0.00027918,0.00100222,0.00000004,-0.
 00001640,-0.00003958,0.,-0.00006891,0.00008402,0.,0.00004300,-0.000004
 36,0.,0.00015525,0.00000975,0.,-0.00163691,-0.00662024,-0.00000078,-0.
 00059797,0.00070176,-0.00012414,0.04994036,-0.00917809,-0.00000205,0.1
 6083615,-0.22440168,-0.00000897,-0.01965100,1.01693985,-0.00116668,0.0
 0089466,-0.00020662,0.00000009,-0.00000002,0.00007576,-0.00000003,-0.0
 0000004,-0.00001419,-0.00000004,0.00000002,0.00002294,-0.00000003,-0.0
 0000011,0.00009309,0.00000006,-0.00000016,-0.00095294,0.00000004,0.000
 00011,0.00000314,0.,0.,0.00000107,0.,0.00000001,-0.00000437,0.,0.,-0.0
 0000704,0.00000001,0.,-0.00004391,-0.00000006,-0.00000063,0.00984626,0
 .00116658,-0.00089455,-0.00020670,0.00000158,-0.00000062,0.01047282,0.
 00001353,-0.00000910,-0.08469112,-0.00000151,0.00004293,0.18702691,-0.
 00026806,0.00060832,-0.00016737,0.00070945,0.00056514,0.00000003,-0.00
 002566,-0.00089446,-0.00000004,-0.00095969,0.00058006,0.00000001,0.001
 62525,0.00025330,0.00000003,-0.00770267,0.00211477,0.,-0.00034131,-0.0
 0097613,-0.00000003,-0.00004933,-0.00004408,0.,-0.00005438,0.00018430,
 0.,0.00003105,0.00011999,0.,0.00027229,0.00020670,0.,-0.00147309,-0.00
 159684,0.00000006,-0.00026803,0.00060831,0.00016741,-0.02451014,-0.066
 89474,-0.00000241,-0.09180778,0.04491251,0.00000088,-0.33460541,-0.192
 01987,-0.00001451,0.99145407,-0.00005035,-0.00018130,-0.00020825,-0.00
 076141,0.00097429,0.00000005,0.00066126,-0.00030087,-0.00000001,-0.000
 25437,0.00014878,0.00000004,0.00433014,-0.00037951,-0.00000004,-0.0033
 1269,0.00850539,-0.00000014,-0.00082305,-0.00206292,-0.00000006,-0.000
 01096,-0.00001433,0.,-0.00004170,0.00008976,0.,0.00001066,0.00000361,0
 .,0.00010838,0.00005761,0.,-0.00478409,0.00048404,0.00000027,-0.000050
 28,-0.00018138,0.00020822,-0.06142768,-0.14742171,-0.00000531,-0.09993
 075,0.14657326,0.00000688,-0.01118354,-0.27297899,-0.00001349,-0.06968
 146,0.85694337,0.00013504,-0.00015883,0.00001063,-0.00000002,0.0000000
 7,-0.00041305,0.00000001,-0.00000005,0.00007576,-0.00000001,0.00000008
 ,-0.00046878,0.00000025,-0.00000009,-0.00018803,-0.00000014,0.00000008
 ,0.00948465,-0.00000004,-0.00000009,-0.00021990,0.,0.,-0.00001069,0.,0
 .,0.00000376,0.,0.,0.00003881,0.,0.,0.00023642,-0.00000022,0.00000003,
 -0.00090494,-0.00013505,0.00015885,0.00001067,-0.00000260,-0.00000650,
 -0.01160000,-0.00000303,0.00000681,0.01010596,-0.00000668,-0.00001276,
 -0.08701526,0.00000017,0.00003044,0.18685411,-0.00046937,-0.00011391,-
 0.00018358,-0.00181231,0.00100877,0.00000005,0.00068611,-0.00051345,-0
 .00000001,0.00010951,0.00122309,0.00000008,0.00572131,-0.00323835,-0.0
 0000015,-0.00426910,0.01234552,0.00000034,-0.00010762,-0.00514834,-0.0
 0000021,0.00006834,-0.00011253,0.,-0.00004136,0.00007363,0.,0.00008700
 ,-0.00010982,0.,0.00027095,-0.00049026,-0.00000004,-0.00465328,-0.0013
 7494,0.00000011,-0.00046931,-0.00011398,0.00018357,-0.08210869,-0.0895
 4059,-0.00000299,-0.05846339,0.07902080,0.00000392,0.11031539,-0.01565
 023,0.00000001,-0.19821844,-0.06734719,-0.00000367,0.96269906,-0.00000
 153,0.00059780,-0.00006112,0.00116185,-0.00059192,0.,-0.00050981,0.000
 41751,0.00000001,0.00189102,0.00012625,0.,-0.00504275,-0.00617660,-0.0
 0000033,0.04071079,-0.01307224,-0.00000060,0.00094939,0.00555825,0.000
 00022,0.00000119,-0.00000836,0.,-0.00000808,-0.00001795,0.,0.00016045,
 -0.00049832,-0.00000001,-0.00003804,-0.00016635,-0.00000001,-0.0012554
 7,-0.00373946,-0.00000063,-0.00000166,0.00059789,0.00006120,0.03779435
 ,0.14059618,0.00000518,0.08487094,-0.10897600,-0.00000546,-0.16109420,
 -0.05903085,-0.00000190,0.11048139,-0.40667995,-0.00000954,0.09469846,
 0.89028695,-0.00133894,0.00089678,-0.00036937,0.00000006,0.,-0.0002199
 0,-0.00000002,0.,0.00000314,0.00000006,0.,0.00011526,-0.00000023,-0.00
 000030,0.00193421,0.00000153,-0.00000067,0.00280433,0.00000004,0.00000
 022,0.00009783,0.,0.,-0.00001571,0.,0.,0.00003122,0.,-0.00000001,-0.00
 012038,0.,0.,-0.00003339,-0.00000006,-0.00000049,0.00936448,0.00133893
 ,-0.00089670,-0.00036944,0.00000133,0.00000498,0.00941592,0.00000300,-
 0.00000389,-0.00944439,-0.00000707,-0.00000429,0.01013293,0.00000495,-
 0.00000851,-0.08462686,0.,0.00002412,0.18561301,-0.00160002,0.00194335
 ,-0.00102234,-0.00252971,-0.00486538,-0.00000025,-0.00079688,0.0001204
 9,0.,-0.00649227,-0.00418598,-0.00000022,-0.03345347,0.04163987,0.0000
 0183,-0.14408366,0.04450311,0.00000220,0.01799039,-0.01769040,-0.00000
 081,0.00094419,-0.00103535,-0.00000006,0.00018145,0.00009853,0.0000000
 1,-0.00048389,0.00175780,0.00000006,0.00061740,0.00113584,0.00000008,-
 0.03727585,-0.01047157,-0.00000045,-0.00160001,0.00194328,0.00102248,-
 0.30542411,-0.00403283,-0.00000004,0.10919047,-0.14827152,-0.00000765,
 -0.17222093,-0.02414137,-0.00000109,0.06217366,0.18981930,0.00000882,-
 0.39321910,-0.00787421,0.00000189,0.92495183,0.00161114,-0.00333651,0.
 00043881,-0.01029284,0.00333244,-0.00000028,0.00276883,0.00037601,0.00
 000009,-0.00081585,0.00211250,-0.00000018,0.03452797,-0.01238273,-0.00
 000096,0.06639007,-0.29371764,-0.00000923,0.01067488,-0.03533176,-0.00
 000168,0.00049632,-0.00019047,-0.00000002,0.00021316,-0.00035194,0.000
 00001,-0.00043599,0.00046632,0.00000004,0.00074339,0.00211807,0.000000
 32,0.00670977,0.01144250,0.00000016,0.00161112,-0.00333637,-0.00043905
 ,-0.16852675,-0.23559897,-0.00000481,-0.01409029,-0.05668965,-0.000003
 39,-0.02025440,0.00157935,0.00000104,0.04781190,-0.01392589,-0.0000017
 2,0.14592495,-0.21216729,-0.00000511,-0.08052719,0.84030287,0.00014688
 ,0.00105232,-0.00038443,-0.00000055,-0.00000026,0.00948465,0.00000024,
 0.00000012,-0.00095294,-0.00000006,-0.00000039,0.00739058,0.00000107,-
 0.00000068,0.00894995,0.00000317,-0.00000924,-0.08109139,0.00000050,-0
 .00000166,0.00280434,0.00000002,-0.00000002,0.00022288,0.00000001,0.00
 000004,-0.00092553,-0.00000002,0.00000004,-0.00040009,0.00000006,0.000
 00033,-0.00518232,0.00000034,0.00000032,0.00516146,-0.00014673,-0.0010
 5257,-0.00038455,-0.00000624,-0.00000602,-0.09694955,-0.00000059,-0.00
 000183,0.01094499,-0.00000037,0.00000088,-0.01218849,0.00000121,-0.000
 00079,0.01093603,0.00000757,-0.00000598,-0.08546308,-0.00000559,0.0000
 2627,0.20297329,-0.00008442,0.00006378,0.00005997,0.00008382,0.0000487
 8,0.,-0.00002507,-0.00005835,0.,-0.00001856,0.00010016,0.,-0.00004796,
 -0.00020398,0.,0.00048528,0.00045004,0.00000002,-0.00009629,0.00013749
 ,0.,-0.00001415,0.00000418,0.,-0.00000138,0.00001281,0.,0.00001135,0.0
 0000833,0.,0.00001189,-0.00000350,0.,0.00097539,-0.00053940,-0.0000000
 9,-0.00008443,0.00006382,-0.00005995,0.01185462,0.01159423,0.00000039,
 -0.32904640,-0.18875933,-0.00000657,-0.01699774,-0.02657268,-0.0000016
 2,-0.00440856,0.00493178,0.00000051,0.00126767,0.00114516,0.00000004,-
 0.00047735,0.00130592,0.00000018,0.33521192,0.00004968,0.00004011,-0.0
 0000569,-0.00006055,-0.00004916,0.,-0.00002644,-0.00005582,0.,0.000058
 56,0.00014360,0.,-0.00025695,-0.00000903,0.,-0.00174374,-0.00050286,0.
 00000001,0.00040776,-0.00031504,0.,0.00002739,-0.00004407,0.,0.0000021
 5,0.00002381,0.,0.00001454,-0.00001951,0.,0.00002627,0.00000355,0.,-0.
 00035312,0.00212563,0.00000037,0.00004975,0.00004006,0.00000568,-0.034
 21002,-0.01236020,-0.00000088,-0.18912671,-0.22567146,-0.00000687,0.01
 979596,0.01496684,0.00000038,0.00280853,-0.00141188,-0.00000068,0.0016
 3524,-0.00020971,0.00000002,0.00287530,-0.00568313,-0.00000071,0.19806
 509,0.22677697,0.00068439,-0.00045136,0.00013833,0.,0.,0.00003881,0.,0
 .,-0.00000704,0.,0.,0.00005329,-0.00000001,0.,0.00002129,-0.00000007,0
 .,-0.00040009,0.00000002,-0.00000001,-0.00012038,0.,0.,0.00001191,0.,0
 .,-0.00000845,0.,0.,-0.00000006,0.,0.,-0.00001739,0.,0.00000033,-0.005
 62962,-0.00068436,0.00045133,0.00013837,-0.00000138,-0.00000023,0.0047
 7196,-0.00000754,-0.00000782,-0.05341410,0.00000128,0.00000095,0.00475
 597,0.00000035,-0.00000050,0.01034025,0.00000012,-0.00000030,-0.000938
 48,-0.00000011,-0.00000068,0.01146438,0.00000730,0.00000782,0.03636474
 ,0.00003118,0.00003934,-0.00004420,0.00006493,0.00002331,0.,-0.0000428
 9,-0.00002515,0.,0.00012965,0.00017300,0.,-0.00049067,-0.00005363,0.,0
 .00014146,0.00015249,0.00000002,-0.00000171,0.00002012,0.,-0.00000115,
 -0.00000953,0.,0.00001026,0.00002277,0.,0.00001471,-0.00000890,0.,0.00
 001177,0.00003046,0.,0.00071220,0.00121395,0.00000005,0.00003118,0.000
 03934,0.00004421,-0.00683848,0.00082941,0.00000019,0.00225188,0.039248
 10,0.00000152,-0.08736971,0.04831601,0.00000207,0.00935989,-0.03599269
 ,-0.00000145,-0.00561082,-0.00212734,-0.00000026,-0.00083830,-0.000145
 30,0.,0.00228659,-0.00050058,-0.00000002,0.08360927,0.00006334,-0.0001
 2081,0.00000629,-0.00020270,-0.00002955,0.,0.00008524,0.00019826,0.,0.
 00008746,-0.00021742,0.00000001,0.00003540,0.00034429,0.00000002,0.000
 26713,-0.00031195,0.00000002,-0.00006160,-0.00005760,0.,0.00000105,0.0
 0002103,0.,0.00001605,-0.00004213,0.,-0.00001956,0.00000772,0.,-0.0000
 5206,0.00000421,0.,-0.00028932,0.00013313,-0.00000003,0.00006334,-0.00
 012082,-0.00000630,0.00221522,0.00053728,-0.00000053,-0.00747619,-0.00
 467029,0.00000002,0.04802295,-0.46829636,-0.00001862,0.01132794,-0.011
 74823,-0.00000019,-0.00406576,-0.00065822,-0.00000062,-0.00031465,0.00
 168351,0.00000014,-0.00029571,0.00149438,0.00000031,-0.05027200,0.4805
 7404,0.00010734,-0.00010593,0.00001692,-0.00000004,0.,0.00000376,0.000
 00002,0.00000004,-0.00000437,0.00000002,-0.00000004,-0.00025109,0.,0.0
 0000007,-0.00001716,0.00000005,-0.00000004,-0.00092553,-0.00000001,0.,
 0.00003122,0.,0.,0.00000209,0.,-0.00000001,0.00006041,0.,0.,-0.0000084
 5,-0.00000001,0.,0.00000229,-0.00000005,-0.00000003,0.00013228,-0.0001
 0733,0.00010590,0.00001693,0.00000053,-0.00000029,0.01003089,0.0000001
 5,-0.00000150,0.00488652,0.00000179,-0.00001595,-0.05244232,0.00000037
 ,-0.00000193,0.00501244,-0.00000060,-0.00000047,0.01009740,-0.00000009
 ,0.00000029,-0.00107652,-0.00000007,0.00000037,-0.00582763,-0.00000212
 ,0.00001919,0.03648163,0.00010072,-0.00015371,0.00000402,-0.00006325,-
 0.00002529,0.,0.00002107,0.00006134,0.,0.00003254,-0.00008147,0.,0.000
 06459,0.00014494,0.,0.00028408,-0.00014463,-0.00000003,-0.00001211,-0.
 00000397,0.,0.00000686,0.00000788,0.,0.00000266,-0.00001467,0.,-0.0000
 0965,-0.00000189,0.,-0.00001559,0.00001241,0.,-0.00012910,0.00048086,0
 .,0.00010071,-0.00015371,-0.00000403,0.00120657,-0.00107035,-0.0000000
 4,-0.00264948,-0.00497584,-0.00000038,-0.01697450,0.01894603,0.0000015
 4,-0.41152089,0.14399222,0.00000774,0.00457672,-0.00810966,-0.00000008
 ,0.00084906,0.00007391,-0.00000002,-0.00069370,0.00080994,0.00000004,0
 .00203782,0.00039830,-0.00000002,0.42143129,-0.00002943,0.00008511,-0.
 00000420,0.00000783,-0.00000041,0.,-0.00001453,-0.00003820,0.,0.000138
 08,0.00013264,0.,-0.00007090,-0.00061116,-0.00000002,0.00138704,0.0004
 6964,0.00000002,0.00010974,0.00007209,0.,0.00001352,-0.00002201,0.,-0.
 00000409,0.00001722,0.,0.00002133,-0.00004857,0.,0.00002069,-0.0000185
 8,0.,0.00019570,-0.00011758,0.00000006,-0.00002942,0.00008510,0.000004
 20,-0.00074144,-0.00044045,0.00000002,-0.00294687,-0.00353974,-0.00000
 081,-0.02838687,0.01436791,0.00000057,0.14417257,-0.14406585,-0.000004
 97,0.03870182,-0.00716180,-0.00000096,-0.00151311,-0.00703622,-0.00000
 068,-0.00117468,0.00072042,0.00000009,0.00055429,0.00174476,0.00000041
 ,-0.15017701,0.14296093,0.00014844,-0.00003514,0.00003412,0.,0.,-0.000
 01069,0.,0.,0.00000107,0.,0.,-0.00004022,0.00000001,0.00000001,-0.0002
 2801,0.00000002,0.,0.00022288,0.,0.,-0.00001571,0.,0.,0.00000424,0.,0.
 ,0.00000209,0.,0.,0.00001191,0.,0.,0.00002195,-0.00000002,0.00000009,-
 0.00109307,-0.00014841,0.00003511,0.00003412,0.00000001,-0.00000020,-0
 .00104481,-0.00000026,-0.00000092,0.01011622,-0.00000232,0.00000064,0.
 00486590,0.00001004,-0.00000592,-0.05265528,0.00000108,0.00000022,0.00
 475820,0.00000022,-0.00000045,0.01038780,-0.00000009,0.00000010,-0.000
 09495,0.00000003,0.00000032,-0.00610441,-0.00000873,0.00000586,0.03677
 713,-0.00019691,0.00026637,-0.00006495,0.00034690,0.00010602,0.,-0.000
 03000,-0.00018471,0.,-0.00004541,0.00015847,0.,0.00011292,-0.00060856,
 -0.00000002,0.00204836,-0.00079504,-0.00000006,-0.00013680,0.00005993,
 0.,-0.00000082,-0.00000753,0.,-0.00000124,0.00004803,0.,0.00001982,-0.
 00001421,0.,0.00014962,0.00026305,0.00000001,-0.00082063,-0.00139565,-
 0.00000004,-0.00019690,0.00026636,0.00006498,-0.00399281,0.00408473,0.
 00000028,0.00069134,0.00175168,0.00000005,0.00036541,0.00134229,0.0000
 0006,0.01058778,0.01179848,0.00000036,-0.33635924,-0.18780225,-0.00000
 520,-0.01640291,-0.02577476,-0.00000108,-0.00019252,-0.00034804,0.,0.0
 0050095,0.00046611,0.00000008,0.00135359,-0.00023426,-0.00000003,0.342
 19948,0.00007888,-0.00006062,0.00003323,0.00000770,-0.00001701,0.,-0.0
 0006718,-0.00015510,0.,-0.00014548,0.00009466,0.,0.00008085,0.00000848
 ,0.,-0.00118749,0.00068710,0.00000019,0.00051216,0.00024140,0.00000001
 ,0.00000075,-0.00003335,0.,-0.00003450,0.00001722,0.,0.00001556,-0.000
 00438,0.,0.00029323,-0.00060100,-0.00000004,0.00071693,0.00054996,0.00
 000005,0.00007888,-0.00006061,-0.00003324,0.00256626,-0.00203860,-0.00
 000042,0.00130570,0.00044545,0.00000005,0.00346571,-0.00629081,-0.0000
 0046,-0.03464816,-0.01242730,-0.00000094,-0.18681295,-0.21902581,-0.00
 000454,0.01908671,0.01633501,0.00000038,-0.00032394,-0.00000352,0.0000
 0007,-0.00152749,-0.00046923,-0.00000008,-0.00001561,0.00244473,0.0000
 0030,0.19655349,0.22036333,-0.00006422,0.00004460,0.00001418,-0.000000
 02,0.,0.00023642,0.,0.,-0.00004391,0.,-0.00000002,0.00020414,-0.000000
 01,0.00000002,0.00015420,-0.00000005,0.00000024,-0.00518232,0.00000002
 ,0.,-0.00003339,0.,0.,0.00002195,0.,0.,0.00000229,0.,0.,-0.00001739,0.
 00000001,-0.00000003,-0.00000153,0.00000002,0.00000004,-0.00038065,0.0
 0006422,-0.00004461,0.00001418,0.00000002,-0.00000076,0.01083808,-0.00
 000024,0.00000026,-0.00097804,0.00000038,-0.00000066,0.01047617,-0.000
 00118,-0.00000095,0.00499329,-0.00000558,-0.00000459,-0.05276697,0.000
 00110,0.00000054,0.00427855,-0.00000002,0.00000009,-0.00164112,-0.0000
 0003,-0.00000003,-0.00011730,-0.00000003,0.00000040,-0.00595048,0.0000
 0558,0.00000547,0.03587964\\-0.00003223,-0.00001052,-0.00006817,0.0000
 4931,0.00003190,-0.00000160,-0.00007938,0.00004823,0.00000108,0.000077
 82,0.00002771,0.00000014,0.00011734,0.00021989,0.00000064,-0.00008907,
 -0.00004472,-0.00000186,-0.00005971,-0.00000745,0.00000166,-0.00004146
 ,-0.00000498,0.00000019,0.00001987,-0.00000245,-0.00000032,0.00002833,
 -0.00000723,-0.00000018,-0.00004712,-0.00003253,-0.00000029,-0.0000281
 9,-0.00000932,0.00000078,-0.00003203,-0.00001076,0.00006803,0.00022520
 ,-0.00010682,0.00000198,0.00007906,0.00002413,-0.00000554,-0.00003515,
 -0.00008612,0.00000929,0.00005873,0.00000373,-0.00000843,-0.00005265,-
 0.00002944,0.00000357,-0.00009810,-0.00001714,-0.00000150,0.00001842,0
 .00002269,-0.00000019,0.00001453,0.00001380,-0.00000063,-0.00003630,-0
 .00002069,0.00000056,-0.00005721,-0.00000193,0.00000080\\\@
 The archive entry for this job was punched.


 EVERYTHING'S GOT A MORAL, IF ONLY YOU CAN FIND IT.

                                    -- LEWIS CARROL, ALICE IN WONDERLAND
 Job cpu time:       0 days  0 hours  0 minutes  3.4 seconds.
 Elapsed time:       0 days  0 hours  0 minutes  3.3 seconds.
 File lengths (MBytes):  RWF=     26 Int=      0 D2E=      0 Chk=      2 Scr=      1
 Normal termination of Gaussian 16 at Fri Mar 17 23:26:15 2023.
