 Entering Gaussian System, Link 0=g16
 Initial command:
 /Applications/g16/l1.exe "/Applications/g16/Scratch/Gau-76785.inp" -scrdir="/Applications/g16/Scratch/"
 Entering Link 1 = /Applications/g16/l1.exe PID=     76787.
  
 Copyright (c) 1988-2019, Gaussian, Inc.  All Rights Reserved.
  
 This is part of the Gaussian(R) 16 program.  It is based on
 the Gaussian(R) 09 system (copyright 2009, Gaussian, Inc.),
 the Gaussian(R) 03 system (copyright 2003, Gaussian, Inc.),
 the Gaussian(R) 98 system (copyright 1998, Gaussian, Inc.),
 the Gaussian(R) 94 system (copyright 1995, Gaussian, Inc.),
 the Gaussian 92(TM) system (copyright 1992, Gaussian, Inc.),
 the Gaussian 90(TM) system (copyright 1990, Gaussian, Inc.),
 the Gaussian 88(TM) system (copyright 1988, Gaussian, Inc.),
 the Gaussian 86(TM) system (copyright 1986, Carnegie Mellon
 University), and the Gaussian 82(TM) system (copyright 1983,
 Carnegie Mellon University). Gaussian is a federally registered
 trademark of Gaussian, Inc.
  
 This software contains proprietary and confidential information,
 including trade secrets, belonging to Gaussian, Inc.
  
 This software is provided under written license and may be
 used, copied, transmitted, or stored only in accord with that
 written license.
  
 The following legend is applicable only to US Government
 contracts under FAR:
  
                    RESTRICTED RIGHTS LEGEND
  
 Use, reproduction and disclosure by the US Government is
 subject to restrictions as set forth in subparagraphs (a)
 and (c) of the Commercial Computer Software - Restricted
 Rights clause in FAR 52.227-19.
  
 Gaussian, Inc.
 340 Quinnipiac St., Bldg. 40, Wallingford CT 06492
  
  
 ---------------------------------------------------------------
 Warning -- This program may not be used in any manner that
 competes with the business of Gaussian, Inc. or will provide
 assistance to any competitor of Gaussian, Inc.  The licensee
 of this program is prohibited from giving any competitor of
 Gaussian, Inc. access to this program.  By using this program,
 the user acknowledges that Gaussian, Inc. is engaged in the
 business of creating and licensing software in the field of
 computational chemistry and represents and warrants to the
 licensee that it is not a competitor of Gaussian, Inc. and that
 it will not use this program in any manner prohibited above.
 ---------------------------------------------------------------
  

 Cite this work as:
 Gaussian 16, Revision C.01,
 M. J. Frisch, G. W. Trucks, H. B. Schlegel, G. E. Scuseria, 
 M. A. Robb, J. R. Cheeseman, G. Scalmani, V. Barone, 
 G. A. Petersson, H. Nakatsuji, X. Li, M. Caricato, A. V. Marenich, 
 J. Bloino, B. G. Janesko, R. Gomperts, B. Mennucci, H. P. Hratchian, 
 J. V. Ortiz, A. F. Izmaylov, J. L. Sonnenberg, D. Williams-Young, 
 F. Ding, F. Lipparini, F. Egidi, J. Goings, B. Peng, A. Petrone, 
 T. Henderson, D. Ranasinghe, V. G. Zakrzewski, J. Gao, N. Rega, 
 G. Zheng, W. Liang, M. Hada, M. Ehara, K. Toyota, R. Fukuda, 
 J. Hasegawa, M. Ishida, T. Nakajima, Y. Honda, O. Kitao, H. Nakai, 
 T. Vreven, K. Throssell, J. A. Montgomery, Jr., J. E. Peralta, 
 F. Ogliaro, M. J. Bearpark, J. J. Heyd, E. N. Brothers, K. N. Kudin, 
 V. N. Staroverov, T. A. Keith, R. Kobayashi, J. Normand, 
 K. Raghavachari, A. P. Rendell, J. C. Burant, S. S. Iyengar, 
 J. Tomasi, M. Cossi, J. M. Millam, M. Klene, C. Adamo, R. Cammi, 
 J. W. Ochterski, R. L. Martin, K. Morokuma, O. Farkas, 
 J. B. Foresman, and D. J. Fox, Gaussian, Inc., Wallingford CT, 2019.
 
 ******************************************
 Gaussian 16:  EM64M-G16RevC.01  3-Jul-2019
                16-Mar-2023 
 ******************************************
 %nprocshared=8
 Will use up to    8 processors via shared memory.
 %mem=10GB
 %chk=octatetraene.chk
 ------------------------------
 #p opt freq rwb97xd/6-31g(d,p)
 ------------------------------
 1/18=20,19=15,26=3,38=1/1,3;
 2/9=110,12=2,17=6,18=5,40=1/2;
 3/5=1,6=6,7=101,11=2,25=1,30=1,71=1,74=-58,116=1/1,2,3;
 4//1;
 5/5=2,38=5/2;
 6/7=2,8=2,9=2,10=2,28=1/1;
 7//1,2,3,16;
 1/18=20,19=15,26=3/3(2);
 2/9=110/2;
 99//99;
 2/9=110/2;
 3/5=1,6=6,7=101,11=2,25=1,30=1,71=1,74=-58,116=1/1,2,3;
 4/5=5,16=3,69=1/1;
 5/5=2,38=5/2;
 7//1,2,3,16;
 1/18=20,19=15,26=3/3(-5);
 2/9=110/2;
 6/7=2,8=2,9=2,10=2,19=2,28=1/1;
 99/9=1/99;
 Leave Link    1 at Thu Mar 16 21:33:42 2023, MaxMem=  1342177280 cpu:               0.1 elap:               0.0
 (Enter /Applications/g16/l101.exe)
 -----
 title
 -----
 Symbolic Z-matrix:
 Charge =  0 Multiplicity = 1
 C                     0.        3.59      5.418 
 H                     0.        4.54      5.966 
 H                     0.        2.641     5.966 
 C                     0.        3.59      4.086 
 H                     0.        4.54      3.538 
 C                     0.        2.264     3.32 
 H                     0.        1.315     3.868 
 C                     0.        2.264     1.989 
 H                     0.        3.214     1.441 
 C                     0.        0.939     1.223 
 H                     0.       -0.011     1.771 
 C                     0.        0.939    -0.109 
 H                     0.        1.888    -0.657 
 C                     0.       -0.387    -0.874 
 H                     0.       -1.336    -0.326 
 C                     0.       -0.387    -2.206 
 H                     0.       -1.336    -2.754 
 H                     0.        0.562    -2.754 
 
 ITRead=  0  0  0  0  0  0  0  0  0  0  0  0  0  0  0  0  0  0
 MicOpt= -1 -1 -1 -1 -1 -1 -1 -1 -1 -1 -1 -1 -1 -1 -1 -1 -1 -1
 NAtoms=     18 NQM=       18 NQMF=       0 NMMI=      0 NMMIF=      0
                NMic=       0 NMicF=      0.
                    Isotopes and Nuclear Properties:
 (Nuclear quadrupole moments (NQMom) in fm**2, nuclear magnetic moments (NMagM)
  in nuclear magnetons)

  Atom         1           2           3           4           5           6           7           8           9          10
 IAtWgt=          12           1           1          12           1          12           1          12           1          12
 AtmWgt=  12.0000000   1.0078250   1.0078250  12.0000000   1.0078250  12.0000000   1.0078250  12.0000000   1.0078250  12.0000000
 NucSpn=           0           1           1           0           1           0           1           0           1           0
 AtZEff=  -0.0000000  -0.0000000  -0.0000000  -0.0000000  -0.0000000  -0.0000000  -0.0000000  -0.0000000  -0.0000000  -0.0000000
 NQMom=    0.0000000   0.0000000   0.0000000   0.0000000   0.0000000   0.0000000   0.0000000   0.0000000   0.0000000   0.0000000
 NMagM=    0.0000000   2.7928460   2.7928460   0.0000000   2.7928460   0.0000000   2.7928460   0.0000000   2.7928460   0.0000000
 AtZNuc=   6.0000000   1.0000000   1.0000000   6.0000000   1.0000000   6.0000000   1.0000000   6.0000000   1.0000000   6.0000000

  Atom        11          12          13          14          15          16          17          18
 IAtWgt=           1          12           1          12           1          12           1           1
 AtmWgt=   1.0078250  12.0000000   1.0078250  12.0000000   1.0078250  12.0000000   1.0078250   1.0078250
 NucSpn=           1           0           1           0           1           0           1           1
 AtZEff=  -0.0000000  -0.0000000  -0.0000000  -0.0000000  -0.0000000  -0.0000000  -0.0000000  -0.0000000
 NQMom=    0.0000000   0.0000000   0.0000000   0.0000000   0.0000000   0.0000000   0.0000000   0.0000000
 NMagM=    2.7928460   0.0000000   2.7928460   0.0000000   2.7928460   0.0000000   2.7928460   2.7928460
 AtZNuc=   1.0000000   6.0000000   1.0000000   6.0000000   1.0000000   6.0000000   1.0000000   1.0000000
 Leave Link  101 at Thu Mar 16 21:33:42 2023, MaxMem=  1342177280 cpu:               1.5 elap:               0.2
 (Enter /Applications/g16/l103.exe)

 GradGradGradGradGradGradGradGradGradGradGradGradGradGradGradGradGradGrad
 Berny optimization.
 Initialization pass.
                           ----------------------------
                           !    Initial Parameters    !
                           ! (Angstroms and Degrees)  !
 --------------------------                            --------------------------
 ! Name  Definition              Value          Derivative Info.                !
 --------------------------------------------------------------------------------
 ! R1    R(1,2)                  1.0967         estimate D2E/DX2                !
 ! R2    R(1,3)                  1.0959         estimate D2E/DX2                !
 ! R3    R(1,4)                  1.332          estimate D2E/DX2                !
 ! R4    R(4,5)                  1.0967         estimate D2E/DX2                !
 ! R5    R(4,6)                  1.5313         estimate D2E/DX2                !
 ! R6    R(6,7)                  1.0959         estimate D2E/DX2                !
 ! R7    R(6,8)                  1.331          estimate D2E/DX2                !
 ! R8    R(8,9)                  1.0967         estimate D2E/DX2                !
 ! R9    R(8,10)                 1.5305         estimate D2E/DX2                !
 ! R10   R(10,11)                1.0967         estimate D2E/DX2                !
 ! R11   R(10,12)                1.332          estimate D2E/DX2                !
 ! R12   R(12,13)                1.0959         estimate D2E/DX2                !
 ! R13   R(12,14)                1.5308         estimate D2E/DX2                !
 ! R14   R(14,15)                1.0959         estimate D2E/DX2                !
 ! R15   R(14,16)                1.332          estimate D2E/DX2                !
 ! R16   R(16,17)                1.0959         estimate D2E/DX2                !
 ! R17   R(16,18)                1.0959         estimate D2E/DX2                !
 ! A1    A(2,1,3)              120.0176         estimate D2E/DX2                !
 ! A2    A(2,1,4)              119.9782         estimate D2E/DX2                !
 ! A3    A(3,1,4)              120.0043         estimate D2E/DX2                !
 ! A4    A(1,4,5)              119.9782         estimate D2E/DX2                !
 ! A5    A(1,4,6)              120.014          estimate D2E/DX2                !
 ! A6    A(5,4,6)              120.0078         estimate D2E/DX2                !
 ! A7    A(4,6,7)              119.9817         estimate D2E/DX2                !
 ! A8    A(4,6,8)              120.014          estimate D2E/DX2                !
 ! A9    A(7,6,8)              120.0043         estimate D2E/DX2                !
 ! A10   A(6,8,9)              119.9782         estimate D2E/DX2                !
 ! A11   A(6,8,10)             120.0328         estimate D2E/DX2                !
 ! A12   A(9,8,10)             119.9891         estimate D2E/DX2                !
 ! A13   A(8,10,11)            119.9891         estimate D2E/DX2                !
 ! A14   A(8,10,12)            120.0328         estimate D2E/DX2                !
 ! A15   A(11,10,12)           119.9782         estimate D2E/DX2                !
 ! A16   A(10,12,13)           120.0043         estimate D2E/DX2                !
 ! A17   A(10,12,14)           119.9816         estimate D2E/DX2                !
 ! A18   A(13,12,14)           120.0141         estimate D2E/DX2                !
 ! A19   A(12,14,15)           120.0141         estimate D2E/DX2                !
 ! A20   A(12,14,16)           119.9816         estimate D2E/DX2                !
 ! A21   A(15,14,16)           120.0043         estimate D2E/DX2                !
 ! A22   A(14,16,17)           120.0043         estimate D2E/DX2                !
 ! A23   A(14,16,18)           120.0043         estimate D2E/DX2                !
 ! A24   A(17,16,18)           119.9914         estimate D2E/DX2                !
 ! D1    D(2,1,4,5)              0.0            estimate D2E/DX2                !
 ! D2    D(2,1,4,6)            180.0            estimate D2E/DX2                !
 ! D3    D(3,1,4,5)            180.0            estimate D2E/DX2                !
 ! D4    D(3,1,4,6)              0.0            estimate D2E/DX2                !
 ! D5    D(1,4,6,7)              0.0            estimate D2E/DX2                !
 ! D6    D(1,4,6,8)            180.0            estimate D2E/DX2                !
 ! D7    D(5,4,6,7)            180.0            estimate D2E/DX2                !
 ! D8    D(5,4,6,8)              0.0            estimate D2E/DX2                !
 ! D9    D(4,6,8,9)              0.0            estimate D2E/DX2                !
 ! D10   D(4,6,8,10)           180.0            estimate D2E/DX2                !
 ! D11   D(7,6,8,9)            180.0            estimate D2E/DX2                !
 ! D12   D(7,6,8,10)             0.0            estimate D2E/DX2                !
 ! D13   D(6,8,10,11)            0.0            estimate D2E/DX2                !
 ! D14   D(6,8,10,12)          180.0            estimate D2E/DX2                !
 ! D15   D(9,8,10,11)          180.0            estimate D2E/DX2                !
 ! D16   D(9,8,10,12)            0.0            estimate D2E/DX2                !
 ! D17   D(8,10,12,13)           0.0            estimate D2E/DX2                !
 ! D18   D(8,10,12,14)         180.0            estimate D2E/DX2                !
 ! D19   D(11,10,12,13)        180.0            estimate D2E/DX2                !
 ! D20   D(11,10,12,14)          0.0            estimate D2E/DX2                !
 ! D21   D(10,12,14,15)          0.0            estimate D2E/DX2                !
 ! D22   D(10,12,14,16)        180.0            estimate D2E/DX2                !
 ! D23   D(13,12,14,15)        180.0            estimate D2E/DX2                !
 ! D24   D(13,12,14,16)          0.0            estimate D2E/DX2                !
 ! D25   D(12,14,16,17)        180.0            estimate D2E/DX2                !
 ! D26   D(12,14,16,18)          0.0            estimate D2E/DX2                !
 ! D27   D(15,14,16,17)          0.0            estimate D2E/DX2                !
 ! D28   D(15,14,16,18)        180.0            estimate D2E/DX2                !
 --------------------------------------------------------------------------------
 Trust Radius=3.00D-01 FncErr=1.00D-07 GrdErr=1.00D-06 EigMax=2.50D+02 EigMin=1.00D-04
 Number of steps in this run=     79 maximum allowed number of steps=    108.
 GradGradGradGradGradGradGradGradGradGradGradGradGradGradGradGradGradGrad

 Leave Link  103 at Thu Mar 16 21:33:43 2023, MaxMem=  1342177280 cpu:               0.0 elap:               0.0
 (Enter /Applications/g16/l202.exe)
                          Input orientation:                          
 ---------------------------------------------------------------------
 Center     Atomic      Atomic             Coordinates (Angstroms)
 Number     Number       Type             X           Y           Z
 ---------------------------------------------------------------------
      1          6           0        0.000000    3.590000    5.418000
      2          1           0        0.000000    4.540000    5.966000
      3          1           0        0.000000    2.641000    5.966000
      4          6           0        0.000000    3.590000    4.086000
      5          1           0        0.000000    4.540000    3.538000
      6          6           0        0.000000    2.264000    3.320000
      7          1           0        0.000000    1.315000    3.868000
      8          6           0        0.000000    2.264000    1.989000
      9          1           0        0.000000    3.214000    1.441000
     10          6           0        0.000000    0.939000    1.223000
     11          1           0        0.000000   -0.011000    1.771000
     12          6           0        0.000000    0.939000   -0.109000
     13          1           0        0.000000    1.888000   -0.657000
     14          6           0        0.000000   -0.387000   -0.874000
     15          1           0        0.000000   -1.336000   -0.326000
     16          6           0        0.000000   -0.387000   -2.206000
     17          1           0        0.000000   -1.336000   -2.754000
     18          1           0        0.000000    0.562000   -2.754000
 ---------------------------------------------------------------------
                    Distance matrix (angstroms):
                    1          2          3          4          5
     1  C    0.000000
     2  H    1.096724   0.000000
     3  H    1.095858   1.899000   0.000000
     4  C    1.332000   2.106395   2.105944   0.000000
     5  H    2.106395   2.428000   3.082432   1.096724   0.000000
     6  C    2.481911   3.490199   2.672722   1.531350   2.286416
     7  H    2.752839   3.847367   2.481911   2.285421   3.241840
     8  C    3.676454   4.582216   3.994829   2.481065   2.753103
     9  H    3.994735   4.715284   4.561135   2.671591   2.481065
    10  C    4.962442   5.955103   5.039132   3.901868   4.280938
    11  H    5.125213   6.189477   4.962976   4.280938   4.881997
    12  C    6.129888   7.062070   6.308917   4.962442   5.125213
    13  H    6.308917   7.134230   6.665669   5.039132   4.962976
    14  C    7.443507   8.429764   7.480266   6.357525   6.613703
    15  H    7.566968   8.609102   7.443507   6.612958   7.032629
    16  C    8.598948   9.542375   8.714951   7.443507   7.567620
    17  H    9.541858  10.515026   9.584098   8.429180   8.609102
    18  H    8.714951   9.584513   8.964410   7.480266   7.444041
                    6          7          8          9         10
     6  C    0.000000
     7  H    1.095858   0.000000
     8  C    1.331000   2.105052   0.000000
     9  H    2.105503   3.081644   1.096724   0.000000
    10  C    2.480531   2.671591   1.530484   2.285421   0.000000
    11  H    2.752277   2.481065   2.285421   3.241840   1.096724
    12  C    3.676094   3.994735   2.481376   2.752839   1.332000
    13  H    3.994735   4.561135   2.672582   2.481911   2.105944
    14  C    4.961596   5.038191   3.901868   4.280938   2.481065
    15  H    5.123799   4.961596   4.280096   4.881064   2.752277
    16  C    6.128987   6.307954   4.962442   5.125213   3.676454
    17  H    7.060699   7.132930   5.954498   6.188742   4.581720
    18  H    6.307954   6.664675   5.039132   4.962976   3.994829
                   11         12         13         14         15
    11  H    0.000000
    12  C    2.106395   0.000000
    13  H    3.082432   1.095858   0.000000
    14  C    2.671591   1.530850   2.285326   0.000000
    15  H    2.480531   2.285326   3.240947   1.095858   0.000000
    16  C    3.994735   2.481065   2.752277   1.332000   2.105944
    17  H    4.715003   3.488789   3.845983   2.105944   2.428000
    18  H    4.561135   2.671732   2.481065   2.105944   3.081816
                   16         17         18
    16  C    0.000000
    17  H    1.095858   0.000000
    18  H    1.095858   1.898000   0.000000
 Stoichiometry    C8H10
 Framework group  CS[SG(C8H10)]
 Deg. of freedom    33
 Full point group                 CS      NOp   2
 Largest Abelian subgroup         CS      NOp   2
 Largest concise Abelian subgroup C1      NOp   1
                         Standard orientation:                         
 ---------------------------------------------------------------------
 Center     Atomic      Atomic             Coordinates (Angstroms)
 Number     Number       Type             X           Y           Z
 ---------------------------------------------------------------------
      1          6           0       -1.988466    3.812121    0.000000
      2          1           0       -2.938466    4.360121    0.000000
      3          1           0       -1.039466    4.360121    0.000000
      4          6           0       -1.988466    2.480121    0.000000
      5          1           0       -2.938466    1.932121    0.000000
      6          6           0       -0.662466    1.714121    0.000000
      7          1           0        0.286534    2.262121    0.000000
      8          6           0       -0.662466    0.383121    0.000000
      9          1           0       -1.612466   -0.164879    0.000000
     10          6           0        0.662534   -0.382879    0.000000
     11          1           0        1.612534    0.165121    0.000000
     12          6           0        0.662534   -1.714879    0.000000
     13          1           0       -0.286466   -2.262879    0.000000
     14          6           0        1.988534   -2.479879    0.000000
     15          1           0        2.937534   -1.931879    0.000000
     16          6           0        1.988534   -3.811879    0.000000
     17          1           0        2.937534   -4.359879    0.000000
     18          1           0        1.039534   -4.359879    0.000000
 ---------------------------------------------------------------------
 Rotational constants (GHZ):          17.7177529           0.5680429           0.5503968
 Leave Link  202 at Thu Mar 16 21:33:43 2023, MaxMem=  1342177280 cpu:               0.0 elap:               0.0
 (Enter /Applications/g16/l301.exe)
 Standard basis: 6-31G(d,p) (6D, 7F)
 Ernie: Thresh=  0.10000D-02 Tol=  0.10000D-05 Strict=F.
 There are   128 symmetry adapted cartesian basis functions of A'  symmetry.
 There are    42 symmetry adapted cartesian basis functions of A"  symmetry.
 There are   128 symmetry adapted basis functions of A'  symmetry.
 There are    42 symmetry adapted basis functions of A"  symmetry.
   170 basis functions,   294 primitive gaussians,   170 cartesian basis functions
    29 alpha electrons       29 beta electrons
       nuclear repulsion energy       294.9521210081 Hartrees.
 IExCor= 4639 DFT=T Ex+Corr=wB97XD ExCW=0 ScaHFX=  1.000000
 ScaDFX=  1.000000  1.000000  1.000000  1.000000 ScalE2=  1.000000  1.000000
 IRadAn=      5 IRanWt=     -1 IRanGd=            0 ICorTp=0 IEmpDi=121
 HFx  wShort=  0.000000 wLong=  0.200000 cFull=  0.222036 cShort=  0.000000 cLong=  0.777964
 DFx  wShort=  0.000000 wLong=  0.200000 cFull=  0.000000 cShort=  0.000000 cLong=  1.000000
 NAtoms=   18 NActive=   18 NUniq=   18 SFac= 1.00D+00 NAtFMM=   60 NAOKFM=F Big=F
 Integral buffers will be    131072 words long.
 Raffenetti 2 integral format.
 Two-electron integral symmetry is turned on.
 R6Disp:  Grimme-D2 Dispersion energy=       -0.0073758889 Hartrees.
 Nuclear repulsion after empirical dispersion term =      294.9447451192 Hartrees.
 Leave Link  301 at Thu Mar 16 21:33:43 2023, MaxMem=  1342177280 cpu:               0.2 elap:               0.0
 (Enter /Applications/g16/l302.exe)
 NPDir=0 NMtPBC=     1 NCelOv=     1 NCel=       1 NClECP=     1 NCelD=      1
         NCelK=      1 NCelE2=     1 NClLst=     1 CellRange=     0.0.
 One-electron integrals computed using PRISM.
 One-electron integral symmetry used in STVInt
 NBasis=   170 RedAO= T EigKep=  2.01D-03  NBF=   128    42
 NBsUse=   170 1.00D-06 EigRej= -1.00D+00 NBFU=   128    42
 Precomputing XC quadrature grid using
 IXCGrd= 4 IRadAn=           5 IRanWt=          -1 IRanGd=           0 AccXCQ= 0.00D+00.
 Generated NRdTot=       0 NPtTot=           0 NUsed=           0 NTot=          32
 NSgBfM=   169   169   169   169   169 MxSgAt=    18 MxSgA2=    18.
 Leave Link  302 at Thu Mar 16 21:33:43 2023, MaxMem=  1342177280 cpu:               0.9 elap:               0.1
 (Enter /Applications/g16/l303.exe)
 DipDrv:  MaxL=1.
 Leave Link  303 at Thu Mar 16 21:33:43 2023, MaxMem=  1342177280 cpu:               0.2 elap:               0.0
 (Enter /Applications/g16/l401.exe)
 ExpMin= 1.61D-01 ExpMax= 3.05D+03 ExpMxC= 4.57D+02 IAcc=3 IRadAn=         5 AccDes= 0.00D+00
 Harris functional with IExCor= 4639 and IRadAn=       5 diagonalized for initial guess.
 HarFok:  IExCor= 4639 AccDes= 0.00D+00 IRadAn=         5 IDoV= 1 UseB2=F ITyADJ=14
 ICtDFT=  3500011 ScaDFX=  1.000000  1.000000  1.000000  1.000000
 FoFCou: FMM=F IPFlag=           0 FMFlag=      100000 FMFlg1=           0
         NFxFlg=           0 DoJE=T BraDBF=F KetDBF=T FulRan=T
         wScrn=  0.000000 ICntrl=       500 IOpCl=  0 I1Cent=   200000004 NGrid=           0
         NMat0=    1 NMatS0=      1 NMatT0=    0 NMatD0=    1 NMtDS0=    0 NMtDT0=    0
 Petite list used in FoFCou.
 Harris En= -296.025832217661    
 JPrj=0 DoOrth=F DoCkMO=F.
 Initial guess orbital symmetries:
       Occupied  (A') (A') (A') (A') (A') (A') (A') (A') (A') (A')
                 (A') (A') (A') (A') (A') (A') (A') (A') (A') (A')
                 (A') (A') (A') (A') (A") (A') (A") (A") (A")
       Virtual   (A") (A") (A") (A") (A') (A') (A') (A') (A') (A')
                 (A') (A') (A') (A') (A') (A') (A') (A') (A') (A')
                 (A') (A') (A') (A") (A') (A") (A") (A') (A") (A')
                 (A') (A") (A') (A') (A") (A') (A') (A") (A") (A')
                 (A') (A') (A') (A') (A') (A') (A') (A') (A') (A')
                 (A') (A') (A') (A') (A') (A') (A') (A') (A') (A")
                 (A") (A') (A") (A') (A") (A") (A") (A') (A") (A")
                 (A') (A") (A') (A') (A') (A') (A") (A') (A') (A')
                 (A") (A') (A') (A') (A') (A") (A') (A') (A') (A')
                 (A") (A") (A') (A") (A') (A") (A") (A") (A') (A')
                 (A") (A') (A") (A') (A") (A') (A") (A") (A') (A')
                 (A") (A") (A") (A') (A') (A') (A') (A') (A') (A')
                 (A') (A') (A') (A') (A') (A') (A') (A') (A') (A')
                 (A') (A') (A') (A') (A') (A') (A') (A') (A') (A')
                 (A')
 The electronic state of the initial guess is 1-A'.
 Leave Link  401 at Thu Mar 16 21:33:43 2023, MaxMem=  1342177280 cpu:               2.5 elap:               0.3
 (Enter /Applications/g16/l502.exe)
 Integral symmetry usage will be decided dynamically.
 Closed shell SCF:
 Using DIIS extrapolation, IDIIS=  1040.
 NGot=  1342177280 LenX=  1342115360 LenY=  1342086019
 Requested convergence on RMS density matrix=1.00D-08 within 128 cycles.
 Requested convergence on MAX density matrix=1.00D-06.
 Requested convergence on             energy=1.00D-06.
 No special actions if energy rises.
 Fock matrices will be formed incrementally for  20 cycles.
 Integral accuracy reduced to 1.0D-05 until final iterations.

 Cycle   1  Pass 0  IDiag  1:
 FoFJK:  IHMeth= 1 ICntrl=       0 DoSepK=T KAlg= 0 I1Cent=           0 FoldK=F
 IRaf=         1 NMat=       1 IRICut=       1 DoRegI=T DoRafI=F ISym2E= 1 IDoP0=0 IntGTp=1.
 FoFCou: FMM=F IPFlag=           0 FMFlag=      100000 FMFlg1=           0
         NFxFlg=           0 DoJE=T BraDBF=F KetDBF=F FulRan=T
         wScrn=  0.000000 ICntrl=       500 IOpCl=  0 I1Cent=           0 NGrid=           0
         NMat0=    1 NMatS0=      1 NMatT0=    0 NMatD0=    1 NMtDS0=    0 NMtDT0=    0
 Petite list used in FoFCou.
 E= -310.615416980165    
 DIIS: error= 7.88D-02 at cycle   1 NSaved=   1.
 NSaved= 1 IEnMin= 1 EnMin= -310.615416980165     IErMin= 1 ErrMin= 7.88D-02
 ErrMax= 7.88D-02  0.00D+00 EMaxC= 1.00D-01 BMatC= 2.89D-01 BMatP= 2.89D-01
 IDIUse=3 WtCom= 2.12D-01 WtEn= 7.88D-01
 Coeff-Com:  0.100D+01
 Coeff-En:   0.100D+01
 Coeff:      0.100D+01
 Gap=     0.293 Goal=   None    Shift=    0.000
 GapD=    0.293 DampG=1.000 DampE=0.500 DampFc=0.5000 IDamp=-1.
 Damping current iteration by 5.00D-01
 RMSDP=2.05D-03 MaxDP=4.74D-02              OVMax= 5.85D-02

 Cycle   2  Pass 0  IDiag  1:
 RMSU=  1.02D-03    CP:  1.00D+00
 E= -310.650615264188     Delta-E=       -0.035198284023 Rises=F Damp=T
 DIIS: error= 3.98D-02 at cycle   2 NSaved=   2.
 NSaved= 2 IEnMin= 2 EnMin= -310.650615264188     IErMin= 2 ErrMin= 3.98D-02
 ErrMax= 3.98D-02  0.00D+00 EMaxC= 1.00D-01 BMatC= 7.00D-02 BMatP= 2.89D-01
 IDIUse=3 WtCom= 6.02D-01 WtEn= 3.98D-01
 Coeff-Com: -0.892D+00 0.189D+01
 Coeff-En:   0.000D+00 0.100D+01
 Coeff:     -0.537D+00 0.154D+01
 Gap=     0.300 Goal=   None    Shift=    0.000
 RMSDP=1.06D-03 MaxDP=2.76D-02 DE=-3.52D-02 OVMax= 3.81D-02

 Cycle   3  Pass 0  IDiag  1:
 RMSU=  6.04D-04    CP:  1.00D+00  1.84D+00
 E= -310.683323468521     Delta-E=       -0.032708204333 Rises=F Damp=F
 DIIS: error= 3.82D-03 at cycle   3 NSaved=   3.
 NSaved= 3 IEnMin= 3 EnMin= -310.683323468521     IErMin= 3 ErrMin= 3.82D-03
 ErrMax= 3.82D-03  0.00D+00 EMaxC= 1.00D-01 BMatC= 1.69D-03 BMatP= 7.00D-02
 IDIUse=3 WtCom= 9.62D-01 WtEn= 3.82D-02
 Coeff-Com: -0.292D+00 0.598D+00 0.695D+00
 Coeff-En:   0.000D+00 0.000D+00 0.100D+01
 Coeff:     -0.281D+00 0.575D+00 0.706D+00
 Gap=     0.301 Goal=   None    Shift=    0.000
 RMSDP=2.67D-04 MaxDP=9.52D-03 DE=-3.27D-02 OVMax= 1.97D-02

 Cycle   4  Pass 0  IDiag  1:
 RMSU=  2.06D-04    CP:  1.00D+00  1.94D+00  7.66D-01
 E= -310.684916902040     Delta-E=       -0.001593433519 Rises=F Damp=F
 DIIS: error= 1.63D-03 at cycle   4 NSaved=   4.
 NSaved= 4 IEnMin= 4 EnMin= -310.684916902040     IErMin= 4 ErrMin= 1.63D-03
 ErrMax= 1.63D-03  0.00D+00 EMaxC= 1.00D-01 BMatC= 1.63D-04 BMatP= 1.69D-03
 IDIUse=3 WtCom= 9.84D-01 WtEn= 1.63D-02
 Coeff-Com: -0.944D-01 0.194D+00 0.318D+00 0.583D+00
 Coeff-En:   0.000D+00 0.000D+00 0.000D+00 0.100D+01
 Coeff:     -0.929D-01 0.190D+00 0.313D+00 0.589D+00
 Gap=     0.301 Goal=   None    Shift=    0.000
 RMSDP=7.28D-05 MaxDP=1.84D-03 DE=-1.59D-03 OVMax= 5.42D-03

 Cycle   5  Pass 0  IDiag  1:
 RMSU=  5.01D-05    CP:  1.00D+00  1.94D+00  8.15D-01  7.88D-01
 E= -310.685094533794     Delta-E=       -0.000177631754 Rises=F Damp=F
 DIIS: error= 2.98D-04 at cycle   5 NSaved=   5.
 NSaved= 5 IEnMin= 5 EnMin= -310.685094533794     IErMin= 5 ErrMin= 2.98D-04
 ErrMax= 2.98D-04  0.00D+00 EMaxC= 1.00D-01 BMatC= 3.20D-06 BMatP= 1.63D-04
 IDIUse=3 WtCom= 9.97D-01 WtEn= 2.98D-03
 Coeff-Com:  0.291D-01-0.603D-01-0.666D-01-0.959D-02 0.111D+01
 Coeff-En:   0.000D+00 0.000D+00 0.000D+00 0.000D+00 0.100D+01
 Coeff:      0.290D-01-0.601D-01-0.664D-01-0.956D-02 0.111D+01
 Gap=     0.302 Goal=   None    Shift=    0.000
 RMSDP=2.85D-05 MaxDP=5.15D-04 DE=-1.78D-04 OVMax= 2.38D-03

 Cycle   6  Pass 0  IDiag  1:
 RMSU=  1.28D-05    CP:  1.00D+00  1.95D+00  8.33D-01  8.78D-01  1.22D+00
 E= -310.685106344697     Delta-E=       -0.000011810903 Rises=F Damp=F
 DIIS: error= 7.19D-05 at cycle   6 NSaved=   6.
 NSaved= 6 IEnMin= 6 EnMin= -310.685106344697     IErMin= 6 ErrMin= 7.19D-05
 ErrMax= 7.19D-05  0.00D+00 EMaxC= 1.00D-01 BMatC= 4.07D-07 BMatP= 3.20D-06
 IDIUse=1 WtCom= 1.00D+00 WtEn= 0.00D+00
 Coeff-Com:  0.126D-01-0.259D-01-0.359D-01-0.429D-01 0.267D+00 0.825D+00
 Coeff:      0.126D-01-0.259D-01-0.359D-01-0.429D-01 0.267D+00 0.825D+00
 Gap=     0.302 Goal=   None    Shift=    0.000
 RMSDP=6.59D-06 MaxDP=1.42D-04 DE=-1.18D-05 OVMax= 5.94D-04

 Initial convergence to 1.0D-05 achieved.  Increase integral accuracy.
 Cycle   7  Pass 1  IDiag  1:
 E= -310.685157262522     Delta-E=       -0.000050917825 Rises=F Damp=F
 DIIS: error= 3.98D-05 at cycle   1 NSaved=   1.
 NSaved= 1 IEnMin= 1 EnMin= -310.685157262522     IErMin= 1 ErrMin= 3.98D-05
 ErrMax= 3.98D-05  0.00D+00 EMaxC= 1.00D-01 BMatC= 2.91D-07 BMatP= 2.91D-07
 IDIUse=1 WtCom= 1.00D+00 WtEn= 0.00D+00
 Coeff-Com:  0.100D+01
 Coeff:      0.100D+01
 Gap=     0.302 Goal=   None    Shift=    0.000
 RMSDP=6.59D-06 MaxDP=1.42D-04 DE=-5.09D-05 OVMax= 2.10D-04

 Cycle   8  Pass 1  IDiag  1:
 RMSU=  6.13D-06    CP:  1.00D+00
 E= -310.685157500363     Delta-E=       -0.000000237841 Rises=F Damp=F
 DIIS: error= 2.48D-05 at cycle   2 NSaved=   2.
 NSaved= 2 IEnMin= 2 EnMin= -310.685157500363     IErMin= 2 ErrMin= 2.48D-05
 ErrMax= 2.48D-05  0.00D+00 EMaxC= 1.00D-01 BMatC= 6.82D-08 BMatP= 2.91D-07
 IDIUse=1 WtCom= 1.00D+00 WtEn= 0.00D+00
 Coeff-Com:  0.248D+00 0.752D+00
 Coeff:      0.248D+00 0.752D+00
 Gap=     0.302 Goal=   None    Shift=    0.000
 RMSDP=1.84D-06 MaxDP=6.46D-05 DE=-2.38D-07 OVMax= 1.16D-04

 Cycle   9  Pass 1  IDiag  1:
 RMSU=  1.82D-06    CP:  1.00D+00  9.55D-01
 E= -310.685157554094     Delta-E=       -0.000000053731 Rises=F Damp=F
 DIIS: error= 1.59D-05 at cycle   3 NSaved=   3.
 NSaved= 3 IEnMin= 3 EnMin= -310.685157554094     IErMin= 3 ErrMin= 1.59D-05
 ErrMax= 1.59D-05  0.00D+00 EMaxC= 1.00D-01 BMatC= 2.15D-08 BMatP= 6.82D-08
 IDIUse=1 WtCom= 1.00D+00 WtEn= 0.00D+00
 Coeff-Com: -0.424D-01 0.344D+00 0.698D+00
 Coeff:     -0.424D-01 0.344D+00 0.698D+00
 Gap=     0.302 Goal=   None    Shift=    0.000
 RMSDP=8.07D-07 MaxDP=2.39D-05 DE=-5.37D-08 OVMax= 5.86D-05

 Cycle  10  Pass 1  IDiag  1:
 RMSU=  5.18D-07    CP:  1.00D+00  1.02D+00  7.53D-01
 E= -310.685157577269     Delta-E=       -0.000000023175 Rises=F Damp=F
 DIIS: error= 3.47D-06 at cycle   4 NSaved=   4.
 NSaved= 4 IEnMin= 4 EnMin= -310.685157577269     IErMin= 4 ErrMin= 3.47D-06
 ErrMax= 3.47D-06  0.00D+00 EMaxC= 1.00D-01 BMatC= 6.35D-10 BMatP= 2.15D-08
 IDIUse=1 WtCom= 1.00D+00 WtEn= 0.00D+00
 Coeff-Com: -0.209D-01 0.727D-01 0.205D+00 0.743D+00
 Coeff:     -0.209D-01 0.727D-01 0.205D+00 0.743D+00
 Gap=     0.302 Goal=   None    Shift=    0.000
 RMSDP=2.20D-07 MaxDP=4.29D-06 DE=-2.32D-08 OVMax= 2.09D-05

 Cycle  11  Pass 1  IDiag  1:
 RMSU=  1.91D-07    CP:  1.00D+00  1.03D+00  8.04D-01  1.06D+00
 E= -310.685157578516     Delta-E=       -0.000000001247 Rises=F Damp=F
 DIIS: error= 1.52D-06 at cycle   5 NSaved=   5.
 NSaved= 5 IEnMin= 5 EnMin= -310.685157578516     IErMin= 5 ErrMin= 1.52D-06
 ErrMax= 1.52D-06  0.00D+00 EMaxC= 1.00D-01 BMatC= 9.63D-11 BMatP= 6.35D-10
 IDIUse=1 WtCom= 1.00D+00 WtEn= 0.00D+00
 Coeff-Com:  0.630D-02-0.672D-01-0.126D+00 0.151D+00 0.104D+01
 Coeff:      0.630D-02-0.672D-01-0.126D+00 0.151D+00 0.104D+01
 Gap=     0.302 Goal=   None    Shift=    0.000
 RMSDP=1.37D-07 MaxDP=3.53D-06 DE=-1.25D-09 OVMax= 1.41D-05

 Cycle  12  Pass 1  IDiag  1:
 RMSU=  4.00D-08    CP:  1.00D+00  1.04D+00  8.24D-01  1.29D+00  1.10D+00
 E= -310.685157578856     Delta-E=       -0.000000000339 Rises=F Damp=F
 DIIS: error= 2.85D-07 at cycle   6 NSaved=   6.
 NSaved= 6 IEnMin= 6 EnMin= -310.685157578856     IErMin= 6 ErrMin= 2.85D-07
 ErrMax= 2.85D-07  0.00D+00 EMaxC= 1.00D-01 BMatC= 3.17D-12 BMatP= 9.63D-11
 IDIUse=1 WtCom= 1.00D+00 WtEn= 0.00D+00
 Coeff-Com:  0.219D-02-0.155D-01-0.329D-01-0.189D-01 0.163D+00 0.902D+00
 Coeff:      0.219D-02-0.155D-01-0.329D-01-0.189D-01 0.163D+00 0.902D+00
 Gap=     0.302 Goal=   None    Shift=    0.000
 RMSDP=2.38D-08 MaxDP=5.99D-07 DE=-3.39D-10 OVMax= 2.55D-06

 Cycle  13  Pass 1  IDiag  1:
 RMSU=  1.14D-08    CP:  1.00D+00  1.04D+00  8.29D-01  1.31D+00  1.17D+00
                    CP:  1.04D+00
 E= -310.685157578861     Delta-E=       -0.000000000005 Rises=F Damp=F
 DIIS: error= 5.83D-08 at cycle   7 NSaved=   7.
 NSaved= 7 IEnMin= 7 EnMin= -310.685157578861     IErMin= 7 ErrMin= 5.83D-08
 ErrMax= 5.83D-08  0.00D+00 EMaxC= 1.00D-01 BMatC= 4.67D-13 BMatP= 3.17D-12
 IDIUse=1 WtCom= 1.00D+00 WtEn= 0.00D+00
 Coeff-Com:  0.398D-03-0.103D-02-0.340D-02-0.163D-01-0.100D-01 0.301D+00
 Coeff-Com:  0.729D+00
 Coeff:      0.398D-03-0.103D-02-0.340D-02-0.163D-01-0.100D-01 0.301D+00
 Coeff:      0.729D+00
 Gap=     0.302 Goal=   None    Shift=    0.000
 RMSDP=5.46D-09 MaxDP=1.50D-07 DE=-5.34D-12 OVMax= 5.01D-07

 SCF Done:  E(RwB97XD) =  -310.685157579     A.U. after   13 cycles
            NFock= 13  Conv=0.55D-08     -V/T= 2.0110
 KE= 3.073152309608D+02 PE=-1.308206330908D+03 EE= 3.952611972492D+02
 Leave Link  502 at Thu Mar 16 21:33:49 2023, MaxMem=  1342177280 cpu:              47.5 elap:               6.0
 (Enter /Applications/g16/l601.exe)
 Copying SCF densities to generalized density rwf, IOpCl= 0 IROHF=0.

 **********************************************************************

            Population analysis using the SCF Density.

 **********************************************************************

 Orbital symmetries:
       Occupied  (A') (A') (A') (A') (A') (A') (A') (A') (A') (A')
                 (A') (A') (A') (A') (A') (A') (A') (A') (A') (A')
                 (A') (A') (A') (A') (A") (A') (A") (A") (A")
       Virtual   (A") (A") (A") (A') (A") (A') (A') (A') (A') (A')
                 (A') (A') (A') (A') (A') (A') (A') (A') (A') (A')
                 (A') (A') (A') (A") (A") (A') (A") (A') (A') (A")
                 (A') (A") (A') (A') (A") (A') (A') (A") (A") (A')
                 (A') (A') (A') (A') (A') (A') (A') (A') (A') (A')
                 (A') (A') (A') (A') (A') (A') (A') (A') (A') (A')
                 (A") (A") (A') (A") (A") (A") (A') (A") (A") (A')
                 (A") (A") (A') (A') (A') (A") (A') (A') (A') (A")
                 (A') (A') (A') (A') (A') (A") (A') (A') (A') (A')
                 (A") (A") (A') (A") (A') (A") (A") (A") (A') (A')
                 (A") (A") (A') (A') (A") (A") (A') (A') (A") (A')
                 (A") (A") (A") (A') (A') (A') (A') (A') (A') (A')
                 (A') (A') (A') (A') (A') (A') (A') (A') (A') (A')
                 (A') (A') (A') (A') (A') (A') (A') (A') (A') (A')
                 (A')
 The electronic state is 1-A'.
 Alpha  occ. eigenvalues --  -10.30938 -10.30927 -10.30818 -10.30796 -10.30677
 Alpha  occ. eigenvalues --  -10.30667 -10.29388 -10.29379  -0.91543  -0.89007
 Alpha  occ. eigenvalues --   -0.85222  -0.80999  -0.69807  -0.65429  -0.64805
 Alpha  occ. eigenvalues --   -0.63650  -0.56451  -0.54631  -0.53446  -0.49251
 Alpha  occ. eigenvalues --   -0.47969  -0.46379  -0.45653  -0.43544  -0.42487
 Alpha  occ. eigenvalues --   -0.40718  -0.39129  -0.33860  -0.27618
 Alpha virt. eigenvalues --    0.02610   0.09392   0.14900   0.17101   0.17134
 Alpha virt. eigenvalues --    0.20218   0.20323   0.20542   0.22209   0.22633
 Alpha virt. eigenvalues --    0.24596   0.26552   0.27796   0.28131   0.35823
 Alpha virt. eigenvalues --    0.39832   0.41121   0.42922   0.44272   0.46787
 Alpha virt. eigenvalues --    0.49512   0.54997   0.58620   0.61034   0.62942
 Alpha virt. eigenvalues --    0.63035   0.66293   0.67473   0.67891   0.68237
 Alpha virt. eigenvalues --    0.69629   0.71627   0.73093   0.74348   0.74774
 Alpha virt. eigenvalues --    0.78054   0.79808   0.80734   0.81562   0.88836
 Alpha virt. eigenvalues --    0.91652   0.92555   0.93401   0.94193   0.95481
 Alpha virt. eigenvalues --    0.95760   0.96892   1.00300   1.00524   1.01690
 Alpha virt. eigenvalues --    1.04601   1.10290   1.13474   1.14037   1.16192
 Alpha virt. eigenvalues --    1.17479   1.21814   1.30551   1.33629   1.38439
 Alpha virt. eigenvalues --    1.38874   1.39351   1.39858   1.42451   1.45742
 Alpha virt. eigenvalues --    1.47713   1.48892   1.50216   1.53810   1.57151
 Alpha virt. eigenvalues --    1.57799   1.59859   1.79867   1.80713   1.81007
 Alpha virt. eigenvalues --    1.93470   1.93864   1.94195   2.01711   2.02779
 Alpha virt. eigenvalues --    2.03068   2.04646   2.05880   2.08216   2.10678
 Alpha virt. eigenvalues --    2.12127   2.13440   2.20469   2.21280   2.26030
 Alpha virt. eigenvalues --    2.26142   2.28692   2.30246   2.34292   2.37580
 Alpha virt. eigenvalues --    2.40239   2.49265   2.49339   2.54092   2.55743
 Alpha virt. eigenvalues --    2.57089   2.57130   2.57846   2.60055   2.61579
 Alpha virt. eigenvalues --    2.67472   2.67489   2.67981   2.68847   2.69791
 Alpha virt. eigenvalues --    2.73853   2.75266   2.77238   2.77423   2.80904
 Alpha virt. eigenvalues --    2.81063   2.92365   2.92827   2.95988   3.01124
 Alpha virt. eigenvalues --    3.01336   3.05269   3.05875   3.34909   3.35233
 Alpha virt. eigenvalues --    3.43514   3.46371   3.50184   3.56010   3.65167
 Alpha virt. eigenvalues --    3.66901   3.75803   3.76096   4.23378   4.24149
 Alpha virt. eigenvalues --    4.26533   4.33922   4.40879   4.54482   4.68186
 Alpha virt. eigenvalues --    4.78432
          Condensed to atoms (all electrons):
               1          2          3          4          5          6
     1  C    4.980816   0.381812   0.393892   0.623506  -0.043314  -0.038717
     2  H    0.381812   0.557162  -0.032643  -0.027145  -0.005851   0.003275
     3  H    0.393892  -0.032643   0.558797  -0.041185   0.004470  -0.009101
     4  C    0.623506  -0.027145  -0.041185   4.796643   0.389796   0.402935
     5  H   -0.043314  -0.005851   0.004470   0.389796   0.571482  -0.039545
     6  C   -0.038717   0.003275  -0.009101   0.402935  -0.039545   4.873271
     7  H   -0.002398   0.000011   0.003406  -0.037877   0.002710   0.389181
     8  C    0.002101  -0.000161   0.000499  -0.030794  -0.002539   0.609087
     9  H    0.000424  -0.000007   0.000013  -0.006907   0.003130  -0.047610
    10  C   -0.000192   0.000002  -0.000002   0.003329   0.000149  -0.029002
    11  H   -0.000002   0.000000   0.000001   0.000133   0.000003  -0.002355
    12  C    0.000004  -0.000000  -0.000000  -0.000186  -0.000002   0.001913
    13  H    0.000000  -0.000000   0.000000  -0.000003   0.000001   0.000464
    14  C   -0.000000   0.000000   0.000000   0.000001   0.000000  -0.000186
    15  H    0.000000  -0.000000  -0.000000   0.000000  -0.000000  -0.000002
    16  C    0.000000  -0.000000   0.000000  -0.000000   0.000000   0.000004
    17  H   -0.000000   0.000000  -0.000000   0.000000  -0.000000  -0.000000
    18  H    0.000000  -0.000000   0.000000   0.000000  -0.000000  -0.000000
               7          8          9         10         11         12
     1  C   -0.002398   0.002101   0.000424  -0.000192  -0.000002   0.000004
     2  H    0.000011  -0.000161  -0.000007   0.000002   0.000000  -0.000000
     3  H    0.003406   0.000499   0.000013  -0.000002   0.000001  -0.000000
     4  C   -0.037877  -0.030794  -0.006907   0.003329   0.000133  -0.000186
     5  H    0.002710  -0.002539   0.003130   0.000149   0.000003  -0.000002
     6  C    0.389181   0.609087  -0.047610  -0.029002  -0.002355   0.001913
     7  H    0.574260  -0.045817   0.004597  -0.007195   0.002993   0.000465
     8  C   -0.045817   4.879063   0.390599   0.381944  -0.039130  -0.028994
     9  H    0.004597   0.390599   0.576150  -0.039114   0.002681  -0.002357
    10  C   -0.007195   0.381944  -0.039114   4.879821   0.390567   0.608714
    11  H    0.002993  -0.039130   0.002681   0.390567   0.576108  -0.047548
    12  C    0.000465  -0.028994  -0.002357   0.608714  -0.047548   4.873593
    13  H    0.000012  -0.007161   0.002983  -0.045747   0.004584   0.389169
    14  C   -0.000003   0.003326   0.000134  -0.030819  -0.006889   0.403069
    15  H    0.000001   0.000150   0.000003  -0.002549   0.003120  -0.039581
    16  C    0.000000  -0.000192  -0.000002   0.002099   0.000424  -0.038755
    17  H   -0.000000   0.000002   0.000000  -0.000161  -0.000007   0.003283
    18  H    0.000000  -0.000002   0.000001   0.000500   0.000013  -0.009122
              13         14         15         16         17         18
     1  C    0.000000  -0.000000   0.000000   0.000000  -0.000000   0.000000
     2  H   -0.000000   0.000000  -0.000000  -0.000000   0.000000  -0.000000
     3  H    0.000000   0.000000  -0.000000   0.000000  -0.000000   0.000000
     4  C   -0.000003   0.000001   0.000000  -0.000000   0.000000   0.000000
     5  H    0.000001   0.000000  -0.000000   0.000000  -0.000000  -0.000000
     6  C    0.000464  -0.000186  -0.000002   0.000004  -0.000000  -0.000000
     7  H    0.000012  -0.000003   0.000001   0.000000  -0.000000   0.000000
     8  C   -0.007161   0.003326   0.000150  -0.000192   0.000002  -0.000002
     9  H    0.002983   0.000134   0.000003  -0.000002   0.000000   0.000001
    10  C   -0.045747  -0.030819  -0.002549   0.002099  -0.000161   0.000500
    11  H    0.004584  -0.006889   0.003120   0.000424  -0.000007   0.000013
    12  C    0.389169   0.403069  -0.039581  -0.038755   0.003283  -0.009122
    13  H    0.574125  -0.037878   0.002714  -0.002405   0.000011   0.003406
    14  C   -0.037878   4.796203   0.389948   0.623534  -0.027143  -0.041173
    15  H    0.002714   0.389948   0.571302  -0.043327  -0.005839   0.004473
    16  C   -0.002405   0.623534  -0.043327   4.980753   0.381908   0.393909
    17  H    0.000011  -0.027143  -0.005839   0.381908   0.557057  -0.032697
    18  H    0.003406  -0.041173   0.004473   0.393909  -0.032697   0.558890
 Mulliken charges:
               1
     1  C   -0.297932
     2  H    0.123545
     3  H    0.121854
     4  C   -0.072248
     5  H    0.119511
     6  C   -0.113612
     7  H    0.115655
     8  C   -0.111981
     9  H    0.115283
    10  C   -0.112345
    11  H    0.115303
    12  C   -0.113664
    13  H    0.115725
    14  C   -0.072124
    15  H    0.119589
    16  C   -0.297950
    17  H    0.123587
    18  H    0.121802
 Sum of Mulliken charges =  -0.00000
 Mulliken charges with hydrogens summed into heavy atoms:
               1
     1  C   -0.052532
     4  C    0.047263
     6  C    0.002043
     8  C    0.003302
    10  C    0.002958
    12  C    0.002061
    14  C    0.047465
    16  C   -0.052560
 Electronic spatial extent (au):  <R**2>=           1985.3748
 Charge=             -0.0000 electrons
 Dipole moment (field-independent basis, Debye):
    X=              0.0008    Y=             -0.0006    Z=              0.0000  Tot=              0.0010
 Quadrupole moment (field-independent basis, Debye-Ang):
   XX=            -42.3876   YY=            -44.9307   ZZ=            -54.2054
   XY=              0.9718   XZ=             -0.0000   YZ=              0.0000
 Traceless Quadrupole moment (field-independent basis, Debye-Ang):
   XX=              4.7870   YY=              2.2439   ZZ=             -7.0309
   XY=              0.9718   XZ=             -0.0000   YZ=              0.0000
 Octapole moment (field-independent basis, Debye-Ang**2):
  XXX=              0.0052  YYY=             -0.0248  ZZZ=              0.0000  XYY=              0.0065
  XXY=             -0.0013  XXZ=              0.0000  XZZ=              0.0048  YZZ=             -0.0053
  YYZ=              0.0000  XYZ=             -0.0000
 Hexadecapole moment (field-independent basis, Debye-Ang**3):
 XXXX=           -686.2699 YYYY=          -1810.0431 ZZZZ=            -56.5098 XXXY=            468.1200
 XXXZ=             -0.0000 YYYX=            496.9147 YYYZ=              0.0000 ZZZX=             -0.0000
 ZZZY=              0.0000 XXYY=           -405.5184 XXZZ=           -154.0558 YYZZ=           -372.0768
 XXYZ=              0.0000 YYXZ=             -0.0000 ZZXY=            198.7959
 N-N= 2.949447451192D+02 E-N=-1.308206328657D+03  KE= 3.073152309608D+02
 Symmetry A'   KE= 2.989093602656D+02
 Symmetry A"   KE= 8.405870695204D+00
 No NMR shielding tensors so no spin-rotation constants.
 Leave Link  601 at Thu Mar 16 21:33:49 2023, MaxMem=  1342177280 cpu:               0.7 elap:               0.1
 (Enter /Applications/g16/l701.exe)
 ... and contract with generalized density number  0.
 Compute integral first derivatives.
 R6Disp: Adding Grimme-D2 dispersion energy 1st derivatives to the gradient.
 Leave Link  701 at Thu Mar 16 21:33:49 2023, MaxMem=  1342177280 cpu:               0.6 elap:               0.1
 (Enter /Applications/g16/l702.exe)
 L702 exits ... SP integral derivatives will be done elsewhere.
 Leave Link  702 at Thu Mar 16 21:33:49 2023, MaxMem=  1342177280 cpu:               0.1 elap:               0.0
 (Enter /Applications/g16/l703.exe)
 Integral derivatives from FoFJK, PRISM(SPDF).
 Compute integral first derivatives, UseDBF=F ICtDFT=           0.
 Calling FoFJK, ICntrl=      2127 FMM=F ISym2X=1 I1Cent= 0 IOpClX= 0 NMat=1 NMatS=1 NMatT=0.
 FoFJK:  IHMeth= 1 ICntrl=    2127 DoSepK=T KAlg= 0 I1Cent=           0 FoldK=F
 IRaf=         1 NMat=       1 IRICut=       1 DoRegI=T DoRafI=F ISym2E= 1 IDoP0=0 IntGTp=1.
 FoFCou: FMM=F IPFlag=           0 FMFlag=      100000 FMFlg1=         800
         NFxFlg=           0 DoJE=F BraDBF=F KetDBF=F FulRan=T
         wScrn=  0.000000 ICntrl=      2527 IOpCl=  0 I1Cent=           0 NGrid=           0
         NMat0=    1 NMatS0=      1 NMatT0=    0 NMatD0=    1 NMtDS0=    0 NMtDT0=    0
 Petite list used in FoFCou.
 Leave Link  703 at Thu Mar 16 21:33:51 2023, MaxMem=  1342177280 cpu:              11.7 elap:               1.5
 (Enter /Applications/g16/l716.exe)
 Dipole        = 3.14263581D-04-2.51900765D-04 1.03407186D-32
 ***** Axes restored to original set *****
 -------------------------------------------------------------------
 Center     Atomic                   Forces (Hartrees/Bohr)
 Number     Number              X              Y              Z
 -------------------------------------------------------------------
      1        6          -0.000000000    0.006893272    0.004643767
      2        1           0.000000000   -0.009459622    0.000382309
      3        1          -0.000000000    0.008289488    0.000330854
      4        6           0.000000000   -0.038206884   -0.007913060
      5        1           0.000000000   -0.008844955   -0.001546728
      6        6          -0.000000000    0.044032788    0.016402910
      7        1          -0.000000000    0.008136481    0.001533723
      8        6           0.000000000   -0.044518647   -0.017370548
      9        1           0.000000000   -0.008482748   -0.001119825
     10        6          -0.000000000    0.044578834    0.016199643
     11        1          -0.000000000    0.008477880    0.001092366
     12        6           0.000000000   -0.043946062   -0.015011338
     13        1           0.000000000   -0.008145661   -0.001512401
     14        6          -0.000000000    0.038635294    0.007501478
     15        1          -0.000000000    0.008355056    0.001796788
     16        6           0.000000000   -0.006470416   -0.004475806
     17        1          -0.000000000    0.008946999   -0.000629894
     18        1           0.000000000   -0.008271099   -0.000304238
 -------------------------------------------------------------------
 Cartesian Forces:  Max     0.044578834 RMS     0.015422894
 Leave Link  716 at Thu Mar 16 21:33:51 2023, MaxMem=  1342177280 cpu:               0.2 elap:               0.0
 (Enter /Applications/g16/l103.exe)

 GradGradGradGradGradGradGradGradGradGradGradGradGradGradGradGradGradGrad
 Berny optimization.
 FormGI is forming the generalized inverse of G from B-inverse, IUseBI=4.
 Internal  Forces:  Max     0.038832138 RMS     0.010229441
 Search for a local minimum.
 Step number   1 out of a maximum of   79
 All quantities printed in internal units (Hartrees-Bohrs-Radians)
 RMS Force = .10229D-01 SwitMx=.10000D-02 MixMth= 1
 Mixed Optimization -- RFO/linear search
 Second derivative matrix not updated -- first step.
 ITU=  0
     Eigenvalues ---    0.00351   0.00358   0.00363   0.01669   0.01673
     Eigenvalues ---    0.01673   0.01675   0.01677   0.01682   0.02988
     Eigenvalues ---    0.02988   0.02988   0.02988   0.02988   0.03001
     Eigenvalues ---    0.16000   0.16000   0.16000   0.16000   0.16000
     Eigenvalues ---    0.16000   0.16000   0.16000   0.16000   0.16000
     Eigenvalues ---    0.22000   0.22000   0.22000   0.22000   0.22000
     Eigenvalues ---    0.22000   0.29299   0.29345   0.29379   0.34047
     Eigenvalues ---    0.34047   0.34047   0.34047   0.34144   0.34144
     Eigenvalues ---    0.34144   0.34144   0.34144   0.34144   0.59036
     Eigenvalues ---    0.59036   0.59036   0.59270
 RFO step:  Lambda=-2.44477223D-02 EMin= 3.51250680D-03
 Linear search not attempted -- first point.
 Iteration  1 RMS(Cart)=  0.05088143 RMS(Int)=  0.00084238
 Iteration  2 RMS(Cart)=  0.00186143 RMS(Int)=  0.00000039
 Iteration  3 RMS(Cart)=  0.00000054 RMS(Int)=  0.00000000
 ITry= 1 IFail=0 DXMaxC= 1.67D-01 DCOld= 1.00D+10 DXMaxT= 3.00D-01 DXLimC= 3.00D+00 Rises=F
 ClnCor:  largest displacement from symmetrization is 3.96D-10 for atom     2.
 Variable       Old X    -DE/DX   Delta X   Delta X   Delta X     New X
                                 (Linear)    (Quad)   (Total)
    R1        2.07251  -0.00800   0.00000  -0.02193  -0.02193   2.05058
    R2        2.07087  -0.00701   0.00000  -0.01917  -0.01917   2.05171
    R3        2.51712   0.00536   0.00000   0.00871   0.00871   2.52583
    R4        2.07251  -0.00689   0.00000  -0.01888  -0.01888   2.05363
    R5        2.89383  -0.03784   0.00000  -0.11920  -0.11920   2.77463
    R6        2.07087  -0.00628   0.00000  -0.01716  -0.01716   2.05371
    R7        2.51523   0.01383   0.00000   0.02242   0.02242   2.53764
    R8        2.07251  -0.00679   0.00000  -0.01860  -0.01860   2.05391
    R9        2.89220  -0.03883   0.00000  -0.12202  -0.12202   2.77017
   R10        2.07251  -0.00680   0.00000  -0.01863  -0.01863   2.05388
   R11        2.51712   0.01264   0.00000   0.02055   0.02055   2.53767
   R12        2.07087  -0.00630   0.00000  -0.01721  -0.01721   2.05366
   R13        2.89289  -0.03763   0.00000  -0.11836  -0.11836   2.77452
   R14        2.07087  -0.00634   0.00000  -0.01732  -0.01732   2.05355
   R15        2.51712   0.00541   0.00000   0.00880   0.00880   2.52592
   R16        2.07087  -0.00743   0.00000  -0.02032  -0.02032   2.05056
   R17        2.07087  -0.00701   0.00000  -0.01916  -0.01916   2.05171
    A1        2.09470  -0.00655   0.00000  -0.03553  -0.03553   2.05917
    A2        2.09401   0.00393   0.00000   0.02131   0.02131   2.11532
    A3        2.09447   0.00262   0.00000   0.01422   0.01422   2.10869
    A4        2.09401  -0.00039   0.00000   0.00636   0.00636   2.10037
    A5        2.09464   0.01271   0.00000   0.05199   0.05199   2.14663
    A6        2.09453  -0.01232   0.00000  -0.05835  -0.05835   2.03618
    A7        2.09408  -0.01190   0.00000  -0.05611  -0.05611   2.03797
    A8        2.09464   0.01262   0.00000   0.05162   0.05162   2.14626
    A9        2.09447  -0.00072   0.00000   0.00448   0.00448   2.09895
   A10        2.09401  -0.00104   0.00000   0.00292   0.00292   2.09693
   A11        2.09497   0.01288   0.00000   0.05268   0.05268   2.14765
   A12        2.09420  -0.01184   0.00000  -0.05560  -0.05560   2.03860
   A13        2.09420  -0.01180   0.00000  -0.05542  -0.05542   2.03878
   A14        2.09497   0.01286   0.00000   0.05261   0.05261   2.14758
   A15        2.09401  -0.00106   0.00000   0.00281   0.00281   2.09682
   A16        2.09447  -0.00078   0.00000   0.00421   0.00421   2.09868
   A17        2.09407   0.01271   0.00000   0.05201   0.05201   2.14609
   A18        2.09464  -0.01193   0.00000  -0.05623  -0.05623   2.03842
   A19        2.09464  -0.01235   0.00000  -0.05842  -0.05842   2.03622
   A20        2.09407   0.01282   0.00000   0.05246   0.05246   2.14653
   A21        2.09447  -0.00047   0.00000   0.00596   0.00596   2.10043
   A22        2.09447   0.00389   0.00000   0.02111   0.02111   2.11558
   A23        2.09447   0.00261   0.00000   0.01414   0.01414   2.10861
   A24        2.09425  -0.00650   0.00000  -0.03525  -0.03525   2.05899
    D1        0.00000   0.00000   0.00000   0.00000   0.00000   0.00000
    D2        3.14159   0.00000   0.00000   0.00000   0.00000   3.14159
    D3        3.14159   0.00000   0.00000   0.00000   0.00000   3.14159
    D4        0.00000   0.00000   0.00000   0.00000  -0.00000   0.00000
    D5       -0.00000   0.00000   0.00000   0.00000   0.00000   0.00000
    D6        3.14159   0.00000   0.00000   0.00000   0.00000   3.14159
    D7        3.14159   0.00000   0.00000   0.00000   0.00000   3.14159
    D8        0.00000   0.00000   0.00000   0.00000   0.00000   0.00000
    D9       -0.00000   0.00000   0.00000   0.00000   0.00000   0.00000
   D10        3.14159   0.00000   0.00000   0.00000   0.00000   3.14159
   D11        3.14159   0.00000   0.00000   0.00000   0.00000   3.14159
   D12        0.00000   0.00000   0.00000   0.00000   0.00000   0.00000
   D13        0.00000   0.00000   0.00000   0.00000  -0.00000   0.00000
   D14        3.14159  -0.00000   0.00000  -0.00000   0.00000   3.14159
   D15        3.14159   0.00000   0.00000   0.00000   0.00000   3.14159
   D16       -0.00000   0.00000   0.00000  -0.00000   0.00000   0.00000
   D17        0.00000   0.00000   0.00000   0.00000  -0.00000   0.00000
   D18        3.14159   0.00000   0.00000   0.00000   0.00000   3.14159
   D19        3.14159   0.00000   0.00000  -0.00000   0.00000   3.14159
   D20        0.00000   0.00000   0.00000   0.00000   0.00000   0.00000
   D21       -0.00000  -0.00000   0.00000  -0.00000   0.00000   0.00000
   D22        3.14159  -0.00000   0.00000  -0.00000   0.00000   3.14159
   D23        3.14159   0.00000   0.00000  -0.00000   0.00000   3.14159
   D24        0.00000  -0.00000   0.00000  -0.00000   0.00000   0.00000
   D25        3.14159   0.00000   0.00000   0.00000   0.00000   3.14159
   D26        0.00000   0.00000   0.00000   0.00000   0.00000   0.00000
   D27       -0.00000   0.00000   0.00000   0.00000   0.00000   0.00000
   D28        3.14159  -0.00000   0.00000  -0.00000   0.00000   3.14159
         Item               Value     Threshold  Converged?
 Maximum Force            0.038832     0.000450     NO 
 RMS     Force            0.010229     0.000300     NO 
 Maximum Displacement     0.166507     0.001800     NO 
 RMS     Displacement     0.050711     0.001200     NO 
 Predicted change in Energy=-1.329164D-02
 Lowest energy point so far.  Saving SCF results.
 GradGradGradGradGradGradGradGradGradGradGradGradGradGradGradGradGradGrad

 Leave Link  103 at Thu Mar 16 21:33:51 2023, MaxMem=  1342177280 cpu:               0.2 elap:               0.0
 (Enter /Applications/g16/l202.exe)
                          Input orientation:                          
 ---------------------------------------------------------------------
 Center     Atomic      Atomic             Coordinates (Angstroms)
 Number     Number       Type             X           Y           Z
 ---------------------------------------------------------------------
      1          6           0       -0.000000    3.579758    5.418724
      2          1           0       -0.000000    4.526817    5.948405
      3          1           0       -0.000000    2.667146    6.006872
      4          6           0       -0.000000    3.533553    4.082912
      5          1           0       -0.000000    4.451888    3.501835
      6          6           0       -0.000000    2.275158    3.326435
      7          1           0       -0.000000    1.355748    3.905892
      8          6           0       -0.000000    2.229231    1.984357
      9          1           0       -0.000000    3.149896    1.406703
     10          6           0        0.000000    0.973904    1.227356
     11          1           0        0.000000    0.053146    1.804835
     12          6           0        0.000000    0.928068   -0.114739
     13          1           0        0.000000    1.847652   -0.693868
     14          6           0        0.000000   -0.330362   -0.871052
     15          1           0        0.000000   -1.248627   -0.289941
     16          6           0        0.000000   -0.376575   -2.206910
     17          1           0        0.000000   -1.323488   -2.736828
     18          1           0        0.000000    0.536088   -2.794988
 ---------------------------------------------------------------------
                    Distance matrix (angstroms):
                    1          2          3          4          5
     1  C    0.000000
     2  H    1.085118   0.000000
     3  H    1.085716   1.860590   0.000000
     4  C    1.336611   2.113442   2.110043   0.000000
     5  H    2.105962   2.447717   3.075795   1.086734   0.000000
     6  C    2.465697   3.456110   2.708948   1.468270   2.183786
     7  H    2.689774   3.771941   2.476667   2.184987   3.122394
     8  C    3.690366   4.581766   4.046281   2.470868   2.691272
     9  H    4.034984   4.745836   4.625429   2.703569   2.466730
    10  C    4.935388   5.908596   5.070586   3.834841   4.155675
    11  H    5.049475   6.097779   4.948748   4.159672   4.714737
    12  C    6.136015   7.050724   6.363844   4.940529   5.049447
    13  H    6.353265   7.162242   6.750665   5.065559   4.938215
    14  C    7.406101   8.372406   7.502726   6.282643   6.480128
    15  H    7.476775   8.501336   7.415060   6.480053   6.846418
    16  C    8.590860   9.515903   8.759592   7.406143   7.476886
    17  H    9.516032  10.471836   9.611318   8.372556   8.501523
    18  H    8.759509   9.611079   9.056166   7.502686   7.415084
                    6          7          8          9         10
     6  C    0.000000
     7  H    1.086777   0.000000
     8  C    1.342863   2.110750   0.000000
     9  H    2.109629   3.076509   1.086880   0.000000
    10  C    2.469695   2.705616   1.465912   2.183371   0.000000
    11  H    2.693066   2.472086   2.183478   3.122238   1.086866
    12  C    3.695446   4.043313   2.469662   2.692825   1.342877
    13  H    4.042968   4.625987   2.705271   2.471485   2.110577
    14  C    4.940408   5.065783   3.834694   4.159371   2.470713
    15  H    5.049280   4.938398   4.155469   4.714404   2.691065
    16  C    6.135926   6.353526   4.935276   5.049178   3.690254
    17  H    7.050773   7.162683   5.908587   6.097542   4.581786
    18  H    6.363661   6.750824   5.070392   4.948354   4.046100
                   11         12         13         14         15
    11  H    0.000000
    12  C    2.109562   0.000000
    13  H    3.076324   1.086750   0.000000
    14  C    2.703230   1.468215   2.185209   0.000000
    15  H    2.466313   2.183734   3.122515   1.086693   0.000000
    16  C    4.034695   2.465618   2.690071   1.336657   2.106003
    17  H    4.745716   3.456133   3.772243   2.113627   2.448032
    18  H    4.625106   2.708760   2.476874   2.110038   3.075787
                   16         17         18
    16  C    0.000000
    17  H    1.085108   0.000000
    18  H    1.085720   1.860485   0.000000
 Stoichiometry    C8H10
 Framework group  CS[SG(C8H10)]
 Deg. of freedom    33
 Full point group                 CS      NOp   2
 RotChk:  IX=0 Diff= 1.39D+00
 Largest Abelian subgroup         CS      NOp   2
 Largest concise Abelian subgroup C1      NOp   1
                         Standard orientation:                         
 ---------------------------------------------------------------------
 Center     Atomic      Atomic             Coordinates (Angstroms)
 Number     Number       Type             X           Y           Z
 ---------------------------------------------------------------------
      1          6           0        2.243628    3.662921   -0.000000
      2          1           0        2.208167    4.747460    0.000000
      3          1           0        3.218555    3.185117   -0.000000
      4          6           0        1.123561    2.933550    0.000000
      5          1           0        0.151734    3.419905    0.000000
      6          6           0        1.125575    1.465281   -0.000000
      7          1           0        2.096570    0.977170   -0.000000
      8          6           0        0.000000    0.732914    0.000000
      9          1           0       -0.970099    1.223033    0.000000
     10          6           0       -0.000020   -0.732998   -0.000000
     11          1           0        0.969978   -1.223285   -0.000000
     12          6           0       -1.125656   -1.465296    0.000000
     13          1           0       -2.096461   -0.976865    0.000000
     14          6           0       -1.123485   -2.933509   -0.000000
     15          1           0       -0.151664   -3.419786   -0.000000
     16          6           0       -2.243586   -3.662910    0.000000
     17          1           0       -2.208404   -4.747447   -0.000000
     18          1           0       -3.218479   -3.185027    0.000000
 ---------------------------------------------------------------------
 Rotational constants (GHZ):          19.1417409           0.5717093           0.5551292
 Leave Link  202 at Thu Mar 16 21:33:51 2023, MaxMem=  1342177280 cpu:               0.0 elap:               0.0
 (Enter /Applications/g16/l301.exe)
 Standard basis: 6-31G(d,p) (6D, 7F)
 Ernie: Thresh=  0.10000D-02 Tol=  0.10000D-05 Strict=F.
 There are   128 symmetry adapted cartesian basis functions of A'  symmetry.
 There are    42 symmetry adapted cartesian basis functions of A"  symmetry.
 There are   128 symmetry adapted basis functions of A'  symmetry.
 There are    42 symmetry adapted basis functions of A"  symmetry.
   170 basis functions,   294 primitive gaussians,   170 cartesian basis functions
    29 alpha electrons       29 beta electrons
       nuclear repulsion energy       297.5290112204 Hartrees.
 IExCor= 4639 DFT=T Ex+Corr=wB97XD ExCW=0 ScaHFX=  1.000000
 ScaDFX=  1.000000  1.000000  1.000000  1.000000 ScalE2=  1.000000  1.000000
 IRadAn=      5 IRanWt=     -1 IRanGd=            0 ICorTp=0 IEmpDi=121
 HFx  wShort=  0.000000 wLong=  0.200000 cFull=  0.222036 cShort=  0.000000 cLong=  0.777964
 DFx  wShort=  0.000000 wLong=  0.200000 cFull=  0.000000 cShort=  0.000000 cLong=  1.000000
 NAtoms=   18 NActive=   18 NUniq=   18 SFac= 1.00D+00 NAtFMM=   60 NAOKFM=F Big=F
 Integral buffers will be    131072 words long.
 Raffenetti 2 integral format.
 Two-electron integral symmetry is turned on.
 R6Disp:  Grimme-D2 Dispersion energy=       -0.0073056047 Hartrees.
 Nuclear repulsion after empirical dispersion term =      297.5217056158 Hartrees.
 Leave Link  301 at Thu Mar 16 21:33:51 2023, MaxMem=  1342177280 cpu:               0.2 elap:               0.0
 (Enter /Applications/g16/l302.exe)
 NPDir=0 NMtPBC=     1 NCelOv=     1 NCel=       1 NClECP=     1 NCelD=      1
         NCelK=      1 NCelE2=     1 NClLst=     1 CellRange=     0.0.
 One-electron integrals computed using PRISM.
 One-electron integral symmetry used in STVInt
 NBasis=   170 RedAO= T EigKep=  1.79D-03  NBF=   128    42
 NBsUse=   170 1.00D-06 EigRej= -1.00D+00 NBFU=   128    42
 Precomputing XC quadrature grid using
 IXCGrd= 4 IRadAn=           5 IRanWt=          -1 IRanGd=           0 AccXCQ= 0.00D+00.
 Generated NRdTot=       0 NPtTot=           0 NUsed=           0 NTot=          32
 NSgBfM=   169   169   169   169   169 MxSgAt=    18 MxSgA2=    18.
 Leave Link  302 at Thu Mar 16 21:33:51 2023, MaxMem=  1342177280 cpu:               0.9 elap:               0.1
 (Enter /Applications/g16/l303.exe)
 DipDrv:  MaxL=1.
 Leave Link  303 at Thu Mar 16 21:33:51 2023, MaxMem=  1342177280 cpu:               0.1 elap:               0.0
 (Enter /Applications/g16/l401.exe)
 Initial guess from the checkpoint file:  "octatetraene.chk"
 B after Tr=     0.000000    0.000000    0.000000
         Rot=    0.869943   -0.000000    0.000000    0.493153 Ang=  59.10 deg.
 Guess basis will be translated and rotated to current coordinates.
 JPrj=2 DoOrth=T DoCkMO=T.
 Initial guess orbital symmetries:
       Occupied  (A') (A') (A') (A') (A') (A') (A') (A') (A') (A')
                 (A') (A') (A') (A') (A') (A') (A') (A') (A') (A')
                 (A') (A') (A') (A') (A") (A') (A") (A") (A")
       Virtual   (A") (A") (A") (A') (A") (A') (A') (A') (A') (A')
                 (A') (A') (A') (A') (A') (A') (A') (A') (A') (A')
                 (A') (A') (A') (A") (A") (A') (A") (A') (A') (A")
                 (A') (A") (A') (A') (A") (A') (A') (A") (A") (A')
                 (A') (A') (A') (A') (A') (A') (A') (A') (A') (A')
                 (A') (A') (A') (A') (A') (A') (A') (A') (A') (A')
                 (A") (A") (A') (A") (A") (A") (A') (A") (A") (A')
                 (A") (A") (A') (A') (A') (A") (A') (A') (A') (A")
                 (A') (A') (A') (A') (A') (A") (A') (A') (A') (A')
                 (A") (A") (A') (A") (A') (A") (A") (A") (A') (A')
                 (A") (A") (A') (A') (A") (A") (A') (A') (A") (A')
                 (A") (A") (A") (A') (A') (A') (A') (A') (A') (A')
                 (A') (A') (A') (A') (A') (A') (A') (A') (A') (A')
                 (A') (A') (A') (A') (A') (A') (A') (A') (A') (A')
                 (A')
 The electronic state of the initial guess is 1-A'.
 Generating alternative initial guess.
 ExpMin= 1.61D-01 ExpMax= 3.05D+03 ExpMxC= 4.57D+02 IAcc=3 IRadAn=         5 AccDes= 0.00D+00
 Harris functional with IExCor= 4639 and IRadAn=       5 diagonalized for initial guess.
 HarFok:  IExCor= 4639 AccDes= 0.00D+00 IRadAn=         5 IDoV= 1 UseB2=F ITyADJ=14
 ICtDFT=  3500011 ScaDFX=  1.000000  1.000000  1.000000  1.000000
 FoFCou: FMM=F IPFlag=           0 FMFlag=      100000 FMFlg1=           0
         NFxFlg=           0 DoJE=T BraDBF=F KetDBF=T FulRan=T
         wScrn=  0.000000 ICntrl=       500 IOpCl=  0 I1Cent=   200000004 NGrid=           0
         NMat0=    1 NMatS0=      1 NMatT0=    0 NMatD0=    1 NMtDS0=    0 NMtDT0=    0
 Petite list used in FoFCou.
 Harris En= -296.024378799123    
 Leave Link  401 at Thu Mar 16 21:33:52 2023, MaxMem=  1342177280 cpu:               2.9 elap:               0.4
 (Enter /Applications/g16/l502.exe)
 Integral symmetry usage will be decided dynamically.
 Closed shell SCF:
 Using DIIS extrapolation, IDIIS=  1040.
 NGot=  1342177280 LenX=  1342115360 LenY=  1342086019
 Requested convergence on RMS density matrix=1.00D-08 within 128 cycles.
 Requested convergence on MAX density matrix=1.00D-06.
 Requested convergence on             energy=1.00D-06.
 No special actions if energy rises.
 Fock matrices will be formed incrementally for  20 cycles.
 Integral accuracy reduced to 1.0D-05 until final iterations.

 Cycle   1  Pass 0  IDiag  1:
 FoFJK:  IHMeth= 1 ICntrl=       0 DoSepK=T KAlg= 0 I1Cent=           0 FoldK=F
 IRaf=         1 NMat=       1 IRICut=       1 DoRegI=T DoRafI=F ISym2E= 1 IDoP0=0 IntGTp=1.
 FoFCou: FMM=F IPFlag=           0 FMFlag=      100000 FMFlg1=           0
         NFxFlg=           0 DoJE=T BraDBF=F KetDBF=F FulRan=T
         wScrn=  0.000000 ICntrl=       500 IOpCl=  0 I1Cent=           0 NGrid=           0
         NMat0=    1 NMatS0=      1 NMatT0=    0 NMatD0=    1 NMtDS0=    0 NMtDT0=    0
 Petite list used in FoFCou.
 E= -310.694750679439    
 DIIS: error= 4.20D-03 at cycle   1 NSaved=   1.
 NSaved= 1 IEnMin= 1 EnMin= -310.694750679439     IErMin= 1 ErrMin= 4.20D-03
 ErrMax= 4.20D-03  0.00D+00 EMaxC= 1.00D-01 BMatC= 3.06D-03 BMatP= 3.06D-03
 IDIUse=3 WtCom= 9.58D-01 WtEn= 4.20D-02
 Coeff-Com:  0.100D+01
 Coeff-En:   0.100D+01
 Coeff:      0.100D+01
 Gap=     0.284 Goal=   None    Shift=    0.000
 GapD=    0.284 DampG=1.000 DampE=1.000 DampFc=1.0000 IDamp=-1.
 RMSDP=4.59D-04 MaxDP=7.43D-03              OVMax= 1.89D-02

 Cycle   2  Pass 0  IDiag  1:
 RMSU=  4.58D-04    CP:  1.00D+00
 E= -310.699501559328     Delta-E=       -0.004750879889 Rises=F Damp=F
 DIIS: error= 1.27D-03 at cycle   2 NSaved=   2.
 NSaved= 2 IEnMin= 2 EnMin= -310.699501559328     IErMin= 2 ErrMin= 1.27D-03
 ErrMax= 1.27D-03  0.00D+00 EMaxC= 1.00D-01 BMatC= 1.65D-04 BMatP= 3.06D-03
 IDIUse=3 WtCom= 9.87D-01 WtEn= 1.27D-02
 Coeff-Com: -0.374D-01 0.104D+01
 Coeff-En:   0.000D+00 0.100D+01
 Coeff:     -0.370D-01 0.104D+01
 Gap=     0.282 Goal=   None    Shift=    0.000
 RMSDP=1.27D-04 MaxDP=2.69D-03 DE=-4.75D-03 OVMax= 9.46D-03

 Cycle   3  Pass 0  IDiag  1:
 RMSU=  1.13D-04    CP:  1.00D+00  1.13D+00
 E= -310.699733358714     Delta-E=       -0.000231799386 Rises=F Damp=F
 DIIS: error= 1.00D-03 at cycle   3 NSaved=   3.
 NSaved= 3 IEnMin= 3 EnMin= -310.699733358714     IErMin= 3 ErrMin= 1.00D-03
 ErrMax= 1.00D-03  0.00D+00 EMaxC= 1.00D-01 BMatC= 6.55D-05 BMatP= 1.65D-04
 IDIUse=3 WtCom= 9.90D-01 WtEn= 1.00D-02
 Coeff-Com: -0.579D-01 0.384D+00 0.674D+00
 Coeff-En:   0.000D+00 0.000D+00 0.100D+01
 Coeff:     -0.573D-01 0.380D+00 0.677D+00
 Gap=     0.282 Goal=   None    Shift=    0.000
 RMSDP=5.50D-05 MaxDP=1.57D-03 DE=-2.32D-04 OVMax= 4.54D-03

 Cycle   4  Pass 0  IDiag  1:
 RMSU=  4.61D-05    CP:  1.00D+00  1.16D+00  7.82D-01
 E= -310.699804301188     Delta-E=       -0.000070942473 Rises=F Damp=F
 DIIS: error= 3.59D-04 at cycle   4 NSaved=   4.
 NSaved= 4 IEnMin= 4 EnMin= -310.699804301188     IErMin= 4 ErrMin= 3.59D-04
 ErrMax= 3.59D-04  0.00D+00 EMaxC= 1.00D-01 BMatC= 8.58D-06 BMatP= 6.55D-05
 IDIUse=3 WtCom= 9.96D-01 WtEn= 3.59D-03
 Coeff-Com: -0.147D-01 0.131D-01 0.267D+00 0.735D+00
 Coeff-En:   0.000D+00 0.000D+00 0.000D+00 0.100D+01
 Coeff:     -0.147D-01 0.131D-01 0.266D+00 0.736D+00
 Gap=     0.281 Goal=   None    Shift=    0.000
 RMSDP=2.03D-05 MaxDP=5.45D-04 DE=-7.09D-05 OVMax= 1.93D-03

 Cycle   5  Pass 0  IDiag  1:
 RMSU=  1.25D-05    CP:  1.00D+00  1.18D+00  9.15D-01  9.40D-01
 E= -310.699816616377     Delta-E=       -0.000012315189 Rises=F Damp=F
 DIIS: error= 1.11D-04 at cycle   5 NSaved=   5.
 NSaved= 5 IEnMin= 5 EnMin= -310.699816616377     IErMin= 5 ErrMin= 1.11D-04
 ErrMax= 1.11D-04  0.00D+00 EMaxC= 1.00D-01 BMatC= 3.95D-07 BMatP= 8.58D-06
 IDIUse=3 WtCom= 9.99D-01 WtEn= 1.11D-03
 Coeff-Com:  0.299D-02-0.333D-01-0.137D-01 0.124D+00 0.920D+00
 Coeff-En:   0.000D+00 0.000D+00 0.000D+00 0.000D+00 0.100D+01
 Coeff:      0.299D-02-0.332D-01-0.137D-01 0.124D+00 0.920D+00
 Gap=     0.281 Goal=   None    Shift=    0.000
 RMSDP=7.65D-06 MaxDP=1.73D-04 DE=-1.23D-05 OVMax= 7.83D-04

 Initial convergence to 1.0D-05 achieved.  Increase integral accuracy.
 Cycle   6  Pass 1  IDiag  1:
 E= -310.699865633194     Delta-E=       -0.000049016817 Rises=F Damp=F
 DIIS: error= 5.28D-05 at cycle   1 NSaved=   1.
 NSaved= 1 IEnMin= 1 EnMin= -310.699865633194     IErMin= 1 ErrMin= 5.28D-05
 ErrMax= 5.28D-05  0.00D+00 EMaxC= 1.00D-01 BMatC= 2.95D-07 BMatP= 2.95D-07
 IDIUse=1 WtCom= 1.00D+00 WtEn= 0.00D+00
 Coeff-Com:  0.100D+01
 Coeff:      0.100D+01
 Gap=     0.281 Goal=   None    Shift=    0.000
 RMSDP=7.65D-06 MaxDP=1.73D-04 DE=-4.90D-05 OVMax= 2.28D-04

 Cycle   7  Pass 1  IDiag  1:
 RMSU=  7.24D-06    CP:  1.00D+00
 E= -310.699865935736     Delta-E=       -0.000000302542 Rises=F Damp=F
 DIIS: error= 1.86D-05 at cycle   2 NSaved=   2.
 NSaved= 2 IEnMin= 2 EnMin= -310.699865935736     IErMin= 2 ErrMin= 1.86D-05
 ErrMax= 1.86D-05  0.00D+00 EMaxC= 1.00D-01 BMatC= 1.48D-08 BMatP= 2.95D-07
 IDIUse=1 WtCom= 1.00D+00 WtEn= 0.00D+00
 Coeff-Com:  0.203D-01 0.980D+00
 Coeff:      0.203D-01 0.980D+00
 Gap=     0.281 Goal=   None    Shift=    0.000
 RMSDP=1.35D-06 MaxDP=2.52D-05 DE=-3.03D-07 OVMax= 1.29D-04

 Cycle   8  Pass 1  IDiag  1:
 RMSU=  1.23D-06    CP:  1.00D+00  1.07D+00
 E= -310.699865964465     Delta-E=       -0.000000028729 Rises=F Damp=F
 DIIS: error= 8.57D-06 at cycle   3 NSaved=   3.
 NSaved= 3 IEnMin= 3 EnMin= -310.699865964465     IErMin= 3 ErrMin= 8.57D-06
 ErrMax= 8.57D-06  0.00D+00 EMaxC= 1.00D-01 BMatC= 6.51D-09 BMatP= 1.48D-08
 IDIUse=1 WtCom= 1.00D+00 WtEn= 0.00D+00
 Coeff-Com: -0.441D-01 0.376D+00 0.668D+00
 Coeff:     -0.441D-01 0.376D+00 0.668D+00
 Gap=     0.281 Goal=   None    Shift=    0.000
 RMSDP=5.88D-07 MaxDP=1.24D-05 DE=-2.87D-08 OVMax= 5.21D-05

 Cycle   9  Pass 1  IDiag  1:
 RMSU=  5.15D-07    CP:  1.00D+00  1.10D+00  8.76D-01
 E= -310.699865973499     Delta-E=       -0.000000009034 Rises=F Damp=F
 DIIS: error= 5.22D-06 at cycle   4 NSaved=   4.
 NSaved= 4 IEnMin= 4 EnMin= -310.699865973499     IErMin= 4 ErrMin= 5.22D-06
 ErrMax= 5.22D-06  0.00D+00 EMaxC= 1.00D-01 BMatC= 5.78D-10 BMatP= 6.51D-09
 IDIUse=1 WtCom= 1.00D+00 WtEn= 0.00D+00
 Coeff-Com: -0.145D-01 0.125D-01 0.175D+00 0.827D+00
 Coeff:     -0.145D-01 0.125D-01 0.175D+00 0.827D+00
 Gap=     0.281 Goal=   None    Shift=    0.000
 RMSDP=2.49D-07 MaxDP=6.05D-06 DE=-9.03D-09 OVMax= 3.02D-05

 Cycle  10  Pass 1  IDiag  1:
 RMSU=  1.80D-07    CP:  1.00D+00  1.11D+00  1.00D+00  1.07D+00
 E= -310.699865974967     Delta-E=       -0.000000001468 Rises=F Damp=F
 DIIS: error= 1.94D-06 at cycle   5 NSaved=   5.
 NSaved= 5 IEnMin= 5 EnMin= -310.699865974967     IErMin= 5 ErrMin= 1.94D-06
 ErrMax= 1.94D-06  0.00D+00 EMaxC= 1.00D-01 BMatC= 1.50D-10 BMatP= 5.78D-10
 IDIUse=1 WtCom= 1.00D+00 WtEn= 0.00D+00
 Coeff-Com:  0.732D-02-0.101D+00-0.125D+00 0.324D+00 0.894D+00
 Coeff:      0.732D-02-0.101D+00-0.125D+00 0.324D+00 0.894D+00
 Gap=     0.281 Goal=   None    Shift=    0.000
 RMSDP=1.54D-07 MaxDP=3.78D-06 DE=-1.47D-09 OVMax= 1.60D-05

 Cycle  11  Pass 1  IDiag  1:
 RMSU=  4.19D-08    CP:  1.00D+00  1.12D+00  1.06D+00  1.31D+00  9.68D-01
 E= -310.699865975370     Delta-E=       -0.000000000403 Rises=F Damp=F
 DIIS: error= 2.01D-07 at cycle   6 NSaved=   6.
 NSaved= 6 IEnMin= 6 EnMin= -310.699865975370     IErMin= 6 ErrMin= 2.01D-07
 ErrMax= 2.01D-07  0.00D+00 EMaxC= 1.00D-01 BMatC= 4.25D-12 BMatP= 1.50D-10
 IDIUse=1 WtCom= 1.00D+00 WtEn= 0.00D+00
 Coeff-Com:  0.233D-02-0.224D-01-0.354D-01 0.344D-01 0.199D+00 0.822D+00
 Coeff:      0.233D-02-0.224D-01-0.354D-01 0.344D-01 0.199D+00 0.822D+00
 Gap=     0.281 Goal=   None    Shift=    0.000
 RMSDP=1.96D-08 MaxDP=4.88D-07 DE=-4.03D-10 OVMax= 1.70D-06

 Cycle  12  Pass 1  IDiag  1:
 RMSU=  1.31D-08    CP:  1.00D+00  1.12D+00  1.07D+00  1.33D+00  9.98D-01
                    CP:  1.04D+00
 E= -310.699865975376     Delta-E=       -0.000000000006 Rises=F Damp=F
 DIIS: error= 6.63D-08 at cycle   7 NSaved=   7.
 NSaved= 7 IEnMin= 7 EnMin= -310.699865975376     IErMin= 7 ErrMin= 6.63D-08
 ErrMax= 6.63D-08  0.00D+00 EMaxC= 1.00D-01 BMatC= 6.34D-13 BMatP= 4.25D-12
 IDIUse=1 WtCom= 1.00D+00 WtEn= 0.00D+00
 Coeff-Com: -0.286D-03 0.640D-02 0.594D-02-0.330D-01-0.575D-01 0.254D+00
 Coeff-Com:  0.824D+00
 Coeff:     -0.286D-03 0.640D-02 0.594D-02-0.330D-01-0.575D-01 0.254D+00
 Coeff:      0.824D+00
 Gap=     0.281 Goal=   None    Shift=    0.000
 RMSDP=6.63D-09 MaxDP=1.56D-07 DE=-5.80D-12 OVMax= 5.63D-07

 SCF Done:  E(RwB97XD) =  -310.699865975     A.U. after   12 cycles
            NFock= 12  Conv=0.66D-08     -V/T= 2.0099
 KE= 3.076547496274D+02 PE=-1.313535904771D+03 EE= 3.976595835520D+02
 Leave Link  502 at Thu Mar 16 21:33:58 2023, MaxMem=  1342177280 cpu:              46.8 elap:               6.0
 (Enter /Applications/g16/l701.exe)
 ... and contract with generalized density number  0.
 Compute integral first derivatives.
 R6Disp: Adding Grimme-D2 dispersion energy 1st derivatives to the gradient.
 Leave Link  701 at Thu Mar 16 21:33:58 2023, MaxMem=  1342177280 cpu:               0.8 elap:               0.1
 (Enter /Applications/g16/l702.exe)
 L702 exits ... SP integral derivatives will be done elsewhere.
 Leave Link  702 at Thu Mar 16 21:33:58 2023, MaxMem=  1342177280 cpu:               0.1 elap:               0.0
 (Enter /Applications/g16/l703.exe)
 Integral derivatives from FoFJK, PRISM(SPDF).
 Compute integral first derivatives, UseDBF=F ICtDFT=           0.
 Calling FoFJK, ICntrl=      2127 FMM=F ISym2X=1 I1Cent= 0 IOpClX= 0 NMat=1 NMatS=1 NMatT=0.
 FoFJK:  IHMeth= 1 ICntrl=    2127 DoSepK=T KAlg= 0 I1Cent=           0 FoldK=F
 IRaf=         1 NMat=       1 IRICut=       1 DoRegI=T DoRafI=F ISym2E= 1 IDoP0=0 IntGTp=1.
 FoFCou: FMM=F IPFlag=           0 FMFlag=      100000 FMFlg1=         800
         NFxFlg=           0 DoJE=F BraDBF=F KetDBF=F FulRan=T
         wScrn=  0.000000 ICntrl=      2527 IOpCl=  0 I1Cent=           0 NGrid=           0
         NMat0=    1 NMatS0=      1 NMatT0=    0 NMatD0=    1 NMtDS0=    0 NMtDT0=    0
 Petite list used in FoFCou.
 Leave Link  703 at Thu Mar 16 21:33:59 2023, MaxMem=  1342177280 cpu:              11.9 elap:               1.5
 (Enter /Applications/g16/l716.exe)
 Dipole        =-1.55369562D-05-1.73294070D-05 6.52933075D-33
 ***** Axes restored to original set *****
 -------------------------------------------------------------------
 Center     Atomic                   Forces (Hartrees/Bohr)
 Number     Number              X              Y              Z
 -------------------------------------------------------------------
      1        6          -0.000000000    0.002990658   -0.002736918
      2        1           0.000000000   -0.001155497    0.001037766
      3        1          -0.000000000    0.000365412    0.001404779
      4        6           0.000000000   -0.011200557   -0.000319752
      5        1          -0.000000000    0.001189700   -0.000404463
      6        6          -0.000000000    0.014046613    0.001883720
      7        1           0.000000000   -0.001735906    0.000177622
      8        6           0.000000000   -0.015205403   -0.002870578
      9        1          -0.000000000    0.001692460   -0.000117999
     10        6          -0.000000000    0.015201049    0.002859974
     11        1           0.000000000   -0.001689642    0.000138723
     12        6           0.000000000   -0.014035186   -0.001795348
     13        1          -0.000000000    0.001725647   -0.000222435
[...]
 ! D21   D(10,12,14,15)          0.0            -DE/DX =    0.0                 !
 ! D22   D(10,12,14,16)        180.0            -DE/DX =    0.0                 !
 ! D23   D(13,12,14,15)        180.0            -DE/DX =    0.0                 !
 ! D24   D(13,12,14,16)          0.0            -DE/DX =    0.0                 !
 ! D25   D(12,14,16,17)        180.0            -DE/DX =    0.0                 !
 ! D26   D(12,14,16,18)          0.0            -DE/DX =    0.0                 !
 ! D27   D(15,14,16,17)          0.0            -DE/DX =    0.0                 !
 ! D28   D(15,14,16,18)        180.0            -DE/DX =    0.0                 !
 --------------------------------------------------------------------------------
 GradGradGradGradGradGradGradGradGradGradGradGradGradGradGradGradGradGrad

 Leave Link  103 at Thu Mar 16 21:35:00 2023, MaxMem=  1342177280 cpu:               0.2 elap:               0.0
 (Enter /Applications/g16/l9999.exe)

 ----------------------------------------------------------------------

 Electric dipole moment (input orientation):
 (Debye = 10**-18 statcoulomb cm , SI units = C m)
                  (au)            (Debye)         (10**-30 SI)
   Tot        0.000000D+00      0.000000D+00      0.000000D+00
   x          0.000000D+00      0.000000D+00      0.000000D+00
   y          0.000000D+00      0.000000D+00      0.000000D+00
   z          0.000000D+00      0.000000D+00      0.000000D+00

 Dipole polarizability, Alpha (input orientation).
 (esu units = cm**3 , SI units = C**2 m**2 J**-1)
 Alpha(0;0):
               (au)            (10**-24 esu)      (10**-40 SI)
   iso        0.115808D+03      0.171610D+02      0.190942D+02
   aniso      0.196388D+03      0.291016D+02      0.323799D+02
   xx         0.300984D+02      0.446012D+01      0.496255D+01
   yx         0.000000D+00      0.000000D+00      0.000000D+00
   yy         0.982034D+02      0.145522D+02      0.161915D+02
   zx         0.000000D+00      0.000000D+00      0.000000D+00
   zy         0.607532D+02      0.900269D+01      0.100168D+02
   zz         0.219123D+03      0.324707D+02      0.361286D+02

 ----------------------------------------------------------------------

 Dipole orientation:
     6          0.00000000         -9.08793858         -8.26011513
     1          0.00000000        -11.07059816         -8.77774463
     1          0.00000000         -7.72322522         -9.79483519
     6          0.00000000         -8.34937184         -5.84517448
     1          0.00000000         -9.76834241         -4.35384713
     6          0.00000000         -5.72356979         -5.03522055
     1          0.00000000         -4.29359762         -6.51791049
     6          0.00000000         -4.98802477         -2.60257597
     1          0.00000000         -6.42293073         -1.12436425
     6         -0.00000000         -2.37415488         -1.78798233
     1         -0.00000000         -0.93924758         -3.26619185
     6         -0.00000000         -1.63861580          0.64465954
     1          0.00000000         -3.06859186          2.12734514
     6         -0.00000000          0.98718591          1.45461979
     1         -0.00000000          2.40615670         -0.03670972
     6         -0.00000000          1.72575056          3.86956116
     1         -0.00000000          3.70840946          4.38719623
     1         -0.00000000          0.36103694          5.40428105

 Electric dipole moment (dipole orientation):
 (Debye = 10**-18 statcoulomb cm , SI units = C m)
                  (au)            (Debye)         (10**-30 SI)
   Tot        0.000000D+00      0.000000D+00      0.000000D+00
   x          0.000000D+00      0.000000D+00      0.000000D+00
   y          0.000000D+00      0.000000D+00      0.000000D+00
   z          0.000000D+00      0.000000D+00      0.000000D+00

 Dipole polarizability, Alpha (dipole orientation).
 (esu units = cm**3 , SI units = C**2 m**2 J**-1)
 Alpha(0;0):
               (au)            (10**-24 esu)      (10**-40 SI)
   iso        0.115808D+03      0.171610D+02      0.190942D+02
   aniso      0.196388D+03      0.291016D+02      0.323799D+02
   xx         0.300984D+02      0.446012D+01      0.496255D+01
   yx         0.000000D+00      0.000000D+00      0.000000D+00
   yy         0.134565D+03      0.199405D+02      0.221868D+02
   zx         0.000000D+00      0.000000D+00      0.000000D+00
   zy         0.822534D+02      0.121887D+02      0.135618D+02
   zz         0.182762D+03      0.270825D+02      0.301334D+02

 ----------------------------------------------------------------------
 Unable to Open any file for archive entry.
 1\1\GINC-TETSUS-MACBOOK-PRO-16\Freq\RwB97XD\6-31G(d,p)\C8H10\WANGZHE\1
 6-Mar-2023\0\\#P Geom=AllCheck Guess=TCheck SCRF=Check GenChk RwB97XD/
 6-31G(d,p) Freq\\title\\0,1\C,0.,3.5836912831,5.421355416\H,0.,4.53301
 52012,5.9453688322\H,0.,2.6836559022,6.0304883363\C,0.,3.5198240757,4.
 0865220047\H,0.,4.4420272242,3.506718654\C,0.,2.2787787493,3.328720477
 5\H,0.,1.3520596701,3.9026594288\C,0.,2.218769885,1.9852014949\H,0.,3.
 1474353331,1.414202611\C,0.,0.9844490956,1.226576427\H,0.,0.0557832495
 ,1.7975740062\C,0.,0.9244429272,-0.1169403956\H,0.,1.8511634359,-0.690
 876617\C,0.,-0.3166013981,-0.8747451231\H,0.,-1.2388049482,-0.29494068
 69\C,0.,-0.3804674418,-2.2095786286\H,0.,-1.3297902885,-2.7335948102\H
 ,0.,0.5195680445,-2.8187114272\\Version=EM64M-G16RevC.01\State=1-A'\HF
 =-310.7005972\RMSD=2.122e-09\RMSF=3.077e-05\ZeroPoint=0.1539515\Therma
 l=0.1628321\ETot=-310.5377651\HTot=-310.536821\GTot=-310.5803791\Dipol
 e=0.,0.0000001,-0.0000005\DipoleDeriv=-0.3203013,0.,0.,0.,-0.002591,-0
 .2694881,0.,-0.1110805,-0.1972471,0.1414968,0.,0.,0.,-0.0611709,-0.081
 043,0.,-0.0521177,-0.0091018,0.14619,0.,0.,0.,-0.0685127,0.0873472,0.,
 0.0386523,0.0245942,-0.0921157,0.,0.,0.,0.2574367,0.3242928,0.,-0.0133
 448,0.0985144,0.1204295,0.,0.,0.,-0.0907739,-0.0063845,0.,0.0950843,-0
 .0075551,-0.1195271,0.,0.,0.,0.0270525,-0.1528471,0.,-0.0455527,0.0357
 348,0.124373,0.,0.,0.,-0.0999974,0.0205881,0.,0.0640976,0.0074433,-0.1
 241913,0.,0.,0.,0.1430594,0.075143,0.,-0.0460752,0.0381508,0.1236459,0
 .,0.,0.,-0.1045025,0.002392,0.,0.0703376,0.0094674,-0.124191,0.,0.,0.,
 0.1430596,0.075143,0.,-0.0460757,0.0381491,0.1236461,0.,0.,0.,-0.10450
 28,0.0023921,0.,0.0703369,0.0094676,-0.119527,0.,0.,0.,0.0270518,-0.15
 28485,0.,-0.045553,0.0357331,0.124373,0.,0.,0.,-0.0999982,0.0205881,0.
 ,0.0640969,0.0074434,-0.0921156,0.,0.,0.,0.2574374,0.3242922,0.,-0.013
 3451,0.0985163,0.1204292,0.,0.,0.,-0.0907741,-0.0063845,0.,0.0950849,-
 0.0075552,-0.320301,0.,0.,0.,-0.0025906,-0.2694868,0.,-0.1110799,-0.19
 72468,0.1414967,0.,0.,0.,-0.0611707,-0.081043,0.,-0.0521183,-0.0091022
 ,0.1461899,0.,0.,0.,-0.0685129,0.087347,0.,0.0386525,0.0245939\Polar=3
 0.0983639,0.,98.2033505,0.,60.7531688,219.1234081\Quadrupole=-5.116983
 1,2.7242311,2.3927521,0.,0.,-0.310177\PG=CS [SG(C8H10)]\NImag=0\\0.107
 60269,0.,0.66076649,0.,0.01930511,0.87098027,-0.03377702,0.,0.,0.02269
 467,0.,-0.28698809,-0.12375684,0.,0.29634516,0.,-0.11854616,-0.1228363
 6,0.,0.13297701,0.12729443,-0.03529986,0.,0.,0.00255300,0.,0.,0.022969
 33,0.,-0.25794359,0.13201171,0.,-0.01503544,0.01539996,0.,0.26648291,0
 .,0.12792541,-0.14492305,0.,-0.01286513,0.01006067,0.,-0.14360875,0.15
 173870,-0.05203180,0.,0.,0.00509743,0.,0.,0.00539311,0.,0.,0.13449240,
 0.,-0.11778727,-0.00658320,0.,0.00297593,-0.03044191,0.,0.00379334,0.0
 2938517,0.,0.62834489,0.,-0.01725839,-0.56340980,0.,0.00360166,-0.0099
 7451,0.,-0.00196151,-0.01314185,0.,-0.02433710,0.87640755,0.00602260,0
 .,0.,-0.00747482,0.,0.,0.01139124,0.,0.,-0.04219463,0.,0.,0.02729764,0
 .,0.00432455,-0.00333366,0.,0.00106780,0.00002565,0.,0.00109150,-0.001
 03014,0.,-0.25749110,0.12418570,0.,0.27304404,0.,0.02960564,-0.0139063
 9,0.,-0.00027363,0.00075420,0.,-0.00069367,-0.00513559,0.,0.12206548,-
 0.13455782,0.,-0.13291009,0.14373565,0.00699584,0.,0.,0.01222463,0.,0.
 ,-0.00795971,0.,0.,-0.06333183,0.,0.,0.00318319,0.,0.,0.13150507,0.,0.
 00222310,-0.01771788,0.,0.00099451,0.00241531,0.,0.00133287,0.00210552
 ,0.,-0.24494672,-0.06314895,0.,-0.02065548,-0.01463545,0.,0.63668842,0
 .,-0.03749344,-0.03663233,0.,0.00022745,-0.00480190,0.,-0.00186960,0.0
 0143371,0.,-0.06414846,-0.12610633,0.,0.01623874,0.00940018,0.,-0.0179
 8096,0.84927080,-0.00128754,0.,0.,-0.00026937,0.,0.,0.00030352,0.,0.,0
 .00311002,0.,0.,0.00296743,0.,0.,-0.04014179,0.,0.,0.02567091,0.,0.001
 18704,0.00107254,0.,0.00045408,-0.00022392,0.,0.00021816,-0.00131798,0
 .,-0.02002454,0.01631809,0.,-0.00317121,-0.00272562,0.,-0.25666404,0.1
 2262655,0.,0.27312949,0.,-0.00096226,0.00168893,0.,0.00025556,0.000049
 61,0.,0.00071955,-0.00035715,0.,-0.01472136,0.00954063,0.,-0.00289296,
 -0.00148440,0.,0.12061881,-0.13372154,0.,-0.13191980,0.14186425,0.0018
 6742,0.,0.,0.00005549,0.,0.,0.00001174,0.,0.,0.00530990,0.,0.,-0.00127
 555,0.,0.,-0.05449984,0.,0.,0.00563156,0.,0.,0.13201643,0.,-0.00599887
 ,0.00181516,0.,0.00013448,-0.00171959,0.,0.00028384,-0.00044280,0.,-0.
 00085665,-0.04062890,0.,0.00101596,-0.00124337,0.,-0.11588610,0.003257
 05,0.,0.00277218,0.02953743,0.,0.63999564,0.,0.00027311,0.01098405,0.,
 -0.00010521,-0.00000614,0.,-0.00002404,-0.00002892,0.,-0.01914159,-0.0
 3836011,0.,0.00173352,0.00164550,0.,0.00149751,-0.51798231,0.,-0.00173
 892,-0.01349582,0.,-0.01657873,0.84809229,0.00015068,0.,0.,0.00019991,
 0.,0.,0.00030879,0.,0.,-0.00685184,0.,0.,0.00025863,0.,0.,0.00561148,0
 .,0.,0.00990023,0.,0.,-0.04048877,0.,0.,0.02604819,0.,0.00022054,-0.00
 004771,0.,-0.00000451,0.00008410,0.,-0.00016700,-0.00007797,0.,0.00125
 462,-0.00202900,0.,0.00021083,0.00061463,0.,0.00261237,-0.00151394,0.,
 0.00059387,-0.00071489,0.,-0.25709163,0.12182814,0.,0.27388055,0.,-0.0
 0047748,0.00010461,0.,-0.00007626,0.00000321,0.,-0.00006648,0.00029300
 ,0.,0.00219077,0.00101078,0.,-0.00147000,-0.00033888,0.,0.02966305,-0.
 01360239,0.,-0.00073338,-0.00514628,0.,0.11998467,-0.13292475,0.,-0.13
 117298,0.14128649,-0.00014162,0.,0.,-0.00148023,0.,0.,0.00037339,0.,0.
 ,0.01233199,0.,0.,-0.00025145,0.,0.,0.00558863,0.,0.,-0.00674543,0.,0.
 ,-0.06131355,0.,0.,0.00300985,0.,0.,0.13201578,0.,0.00113726,-0.002480
 48,0.,0.00006926,0.00023909,0.,-0.00007325,-0.00002920,0.,0.00298903,0
 .00767995,0.,0.00038232,-0.00008766,0.,-0.00091754,-0.02099387,0.,0.00
 121378,0.00213540,0.,-0.24903721,-0.06576131,0.,-0.02013248,-0.0146825
 8,0.,0.63999574,0.,-0.00226511,-0.00395534,0.,0.00005000,-0.00046899,0
 .,0.00003310,0.00008200,0.,0.00807851,0.00260476,0.,-0.00057806,0.0000
 3717,0.,-0.04140262,-0.04051066,0.,-0.00193416,0.00108892,0.,-0.065761
 43,-0.12649611,0.,0.01603604,0.00969472,0.,-0.01657961,0.84809951,-0.0
 0003696,0.,0.,0.00003254,0.,0.,0.00000764,0.,0.,-0.00027075,0.,0.,0.00
 006902,0.,0.,-0.00134750,0.,0.,0.00027480,0.,0.,0.00300984,0.,0.,0.003
 12406,0.,0.,-0.04048879,0.,0.,0.02604814,0.,-0.00012174,-0.00010378,0.
 ,0.00000733,-0.00001562,0.,-0.00000767,-0.00005403,0.,0.00041481,-0.00
 052473,0.,0.00027048,0.00014993,0.,0.00096023,0.00169419,0.,0.00020907
 ,-0.00141892,0.,-0.02013242,0.01603602,0.,-0.00310968,-0.00273345,0.,-
 0.25709237,0.12182836,0.,0.27388128,0.,0.00010926,-0.00003496,0.,0.000
 01156,0.00002123,0.,-0.00000452,-0.00003237,0.,-0.00008170,0.00001236,
 0.,0.00015741,-0.00011342,0.,-0.00122247,0.00163956,0.,0.00060463,-0.0
 0036013,0.,-0.01468260,0.00969477,0.,-0.00273346,-0.00151278,0.,0.1199
 8475,-0.13292466,0.,-0.13117322,0.14128634,-0.00007110,0.,0.,-0.000033
 80,0.,0.,0.00001369,0.,0.,0.00014935,0.,0.,-0.00002885,0.,0.,0.0021366
 6,0.,0.,0.00000588,0.,0.,0.00558876,0.,0.,-0.00134751,0.,0.,-0.0544992
 6,0.,0.,0.00561155,0.,0.,0.13150454,0.,-0.00103036,0.00036423,0.,-0.00
 003221,-0.00021013,0.,0.00003460,0.00000914,0.,0.00061455,-0.00303002,
 0.,-0.00010272,0.00011409,0.,-0.00550580,0.00302469,0.,0.00028032,-0.0
 0046388,0.,-0.00091760,-0.04140271,0.,0.00096022,-0.00122252,0.,-0.115
 88539,0.00149798,0.,0.00261231,0.02966316,0.,0.63668737,0.,0.00023178,
 0.00244911,0.,-0.00003350,-0.00000575,0.,0.00005784,-0.00001602,0.,-0.
 00330846,-0.00415134,0.,-0.00000281,-0.00005388,0.,0.00302472,0.013393
 41,0.,-0.00001326,-0.00000234,0.,-0.02099403,-0.04051097,0.,0.00169422
 ,0.00163956,0.,0.00325750,-0.51798973,0.,-0.00151391,-0.01360237,0.,-0
 .01798175,0.84927787,-0.00000303,0.,0.,-0.00007578,0.,0.,0.00002473,0.
 ,0.,0.00029108,0.,0.,0.00001282,0.,0.,0.00000587,0.,0.,0.00032997,0.,0
 .,-0.00674546,0.,0.,0.00027481,0.,0.,0.00563164,0.,0.,0.00990025,0.,0.
 ,-0.04014182,0.,0.,0.02567089,0.,-0.00000764,0.00003367,0.,0.00000143,
 0.00000401,0.,0.00000057,0.,0.,-0.00002141,0.00002859,0.,-0.00001137,0
 .00000032,0.,0.00028032,-0.00001326,0.,-0.00015979,-0.00008134,0.,0.00
 121378,-0.00193422,0.,0.00020908,0.00060463,0.,0.00277206,-0.00173887,
 0.,0.00059387,-0.00073336,0.,-0.25666498,0.12262650,0.,0.27313047,0.,0
 .00000913,0.00000637,0.,-0.00000042,-0.00000065,0.,-0.00000162,0.00001
 428,0.,-0.00004001,0.00004705,0.,-0.00005842,-0.00003169,0.,-0.0004638
 9,-0.00000233,0.,-0.00008134,0.00029997,0.,0.00213543,0.00108889,0.,-0
 .00141894,-0.00036013,0.,0.02953756,-0.01349585,0.,-0.00071487,-0.0051
 4629,0.,0.12061855,-0.13372095,0.,-0.13191966,0.14186371,0.00001398,0.
 ,0.,0.00028711,0.,0.,-0.00010449,0.,0.,-0.00171622,0.,0.,0.00002520,0.
 ,0.,0.00014937,0.,0.,0.00029107,0.,0.,0.01233197,0.,0.,-0.00027075,0.,
 0.,0.00530999,0.,0.,-0.00685186,0.,0.,-0.06333200,0.,0.,0.00311001,0.,
 0.,0.13449274,0.,0.00052764,-0.00040765,0.,0.00003325,0.00009609,0.,-0
 .00002939,-0.00000749,0.,0.00008759,0.00142234,0.,0.00012144,-0.000019
 42,0.,0.00061454,-0.00330845,0.,-0.00002141,-0.00004001,0.,0.00298903,
 0.00807849,0.,0.00041481,-0.00008170,0.,-0.00085660,-0.01914151,0.,0.0
 0125462,0.00219078,0.,-0.24494534,-0.06414814,0.,-0.02002448,-0.014721
 42,0.,0.62834184,0.,-0.00029176,-0.00089903,0.,0.00000836,-0.00005257,
 0.,-0.00000821,0.00000908,0.,0.00142234,0.00098509,0.,-0.00002614,0.00
 003604,0.,-0.00303003,-0.00415133,0.,0.00002859,0.00004705,0.,0.007679
 97,0.00260477,0.,-0.00052473,0.00001237,0.,-0.04062888,-0.03836022,0.,
 -0.00202902,0.00101078,0.,-0.06314850,-0.12610633,0.,0.01631799,0.0095
 4064,0.,-0.02433693,0.87640721,-0.00001352,0.,0.,-0.00000120,0.,0.,0.0
 0000692,0.,0.,0.00002520,0.,0.,0.00000536,0.,0.,-0.00002885,0.,0.,0.00
 001282,0.,0.,-0.00025145,0.,0.,0.00006902,0.,0.,-0.00127555,0.,0.,0.00
 025863,0.,0.,0.00318322,0.,0.,0.00296742,0.,0.,-0.04219485,0.,0.,0.027
 29788,0.,-0.00009011,-0.00003304,0.,-0.00000199,-0.00001223,0.,0.00000
 409,-0.00000272,0.,0.00012144,-0.00002614,0.,-0.00000902,0.00000925,0.
 ,-0.00010272,-0.00000281,0.,-0.00001137,-0.00005842,0.,0.00038232,-0.0
 0057806,0.,0.00027048,0.00015741,0.,0.00101595,0.00173352,0.,0.0002108
 3,-0.00147001,0.,-0.02065559,0.01623871,0.,-0.00317121,-0.00289297,0.,
 -0.25748962,0.12418476,0.,0.27304268,0.,0.00002930,0.00000750,0.,0.000
 00268,0.00000636,0.,-0.00000241,-0.00000220,0.,-0.00001942,0.00003604,
 0.,0.00000925,0.00000168,0.,0.00011409,-0.00005388,0.,0.00000032,-0.00
 003169,0.,-0.00008766,0.00003717,0.,0.00014993,-0.00011342,0.,-0.00124
 339,0.00164551,0.,0.00061464,-0.00033889,0.,-0.01463547,0.00940014,0.,
 -0.00272562,-0.00148441,0.,0.12206464,-0.13455751,0.,-0.13290915,0.143
 73530,0.00002646,0.,0.,-0.00000803,0.,0.,-0.00000918,0.,0.,0.00001398,
 0.,0.,-0.00001352,0.,0.,-0.00007110,0.,0.,-0.00000303,0.,0.,-0.0001416
 2,0.,0.,-0.00003696,0.,0.,0.00186741,0.,0.,0.00015068,0.,0.,0.00699579
 ,0.,0.,-0.00128753,0.,0.,-0.05203173,0.,0.,0.00602256,0.,0.,0.10760286
 ,0.,-0.00041082,-0.00013601,0.,-0.00002040,-0.00007034,0.,0.00001227,0
 .00001221,0.,0.00052764,-0.00029176,0.,-0.00009011,0.00002930,0.,-0.00
 103036,0.00023178,0.,-0.00000764,0.00000913,0.,0.00113726,-0.00226511,
 0.,-0.00012174,0.00010927,0.,-0.00599888,0.00027310,0.,0.00022054,-0.0
 0047748,0.,0.00222324,-0.03749330,0.,0.00118704,-0.00096223,0.,-0.1177
 8724,-0.01725798,0.,0.00432454,0.02960559,0.,0.66076502,0.,-0.00013601
 ,0.00040472,0.,-0.00001898,-0.00002982,0.,0.00001684,0.00000152,0.,-0.
 00040766,-0.00089903,0.,-0.00003304,0.00000750,0.,0.00036423,0.0024491
 1,0.,0.00003367,0.00000637,0.,-0.00248049,-0.00395533,0.,-0.00010378,-
 0.00003496,0.,0.00181513,0.01098402,0.,-0.00004771,0.00010461,0.,-0.01
 771769,-0.03663228,0.,0.00107253,0.00168893,0.,-0.00658293,-0.56340972
 ,0.,-0.00333362,-0.01390633,0.,0.01930470,0.87098048,-0.00000803,0.,0.
 ,-0.00004759,0.,0.,0.00002305,0.,0.,0.00028711,0.,0.,-0.00000120,0.,0.
 ,-0.00003380,0.,0.,-0.00007578,0.,0.,-0.00148022,0.,0.,0.00003254,0.,0
 .,0.00005547,0.,0.,0.00019992,0.,0.,0.01222465,0.,0.,-0.00026937,0.,0.
 ,0.00509738,0.,0.,-0.00747483,0.,0.,-0.03377714,0.,0.,0.02269479,0.,-0
 .00002040,-0.00001899,0.,-0.00000281,-0.00000468,0.,0.00000223,0.00000
 036,0.,0.00003325,0.00000836,0.,-0.00000199,0.00000268,0.,-0.00003221,
 -0.00003350,0.,0.00000143,-0.00000042,0.,0.00006926,0.00005000,0.,0.00
 000733,0.00001156,0.,0.00013448,-0.00010521,0.,-0.00000451,-0.00007626
 ,0.,0.00099451,0.00022747,0.,0.00045407,0.00025557,0.,0.00297599,0.003
 60167,0.,0.00106779,-0.00027364,0.,-0.28698680,-0.12375681,0.,0.296343
 93,0.,-0.00007034,-0.00002982,0.,-0.00000468,-0.00001496,0.,0.00000338
 ,0.00000195,0.,0.00009609,-0.00005257,0.,-0.00001224,0.00000636,0.,-0.
 00021013,-0.00000575,0.,0.00000401,-0.00000065,0.,0.00023909,-0.000468
 99,0.,-0.00001562,0.00002123,0.,-0.00171959,-0.00000614,0.,0.00008410,
 0.00000321,0.,0.00241533,-0.00480187,0.,-0.00022392,0.00004961,0.,-0.0
 3044182,-0.00997450,0.,0.00002566,0.00075421,0.,-0.11854625,-0.1228368
 4,0.,0.13297700,0.12729486,-0.00000918,0.,0.,0.00002305,0.,0.,-0.00000
 690,0.,0.,-0.00010449,0.,0.,0.00000692,0.,0.,0.00001369,0.,0.,0.000024
 73,0.,0.,0.00037339,0.,0.,0.00000764,0.,0.,0.00001175,0.,0.,0.00030879
 ,0.,0.,-0.00795973,0.,0.,0.00030352,0.,0.,0.00539309,0.,0.,0.01139124,
 0.,0.,-0.03529989,0.,0.,0.00255305,0.,0.,0.02296934,0.,0.00001227,0.00
 001684,0.,0.00000223,0.00000338,0.,-0.00000004,-0.00000158,0.,-0.00002
 939,-0.00000821,0.,0.00000409,-0.00000241,0.,0.00003460,0.00005784,0.,
 0.00000057,-0.00000162,0.,-0.00007325,0.00003310,0.,-0.00000767,-0.000
 00452,0.,0.00028384,-0.00002404,0.,-0.00016700,-0.00006648,0.,0.001332
 86,-0.00186957,0.,0.00021816,0.00071956,0.,0.00379335,-0.00196151,0.,0
 .00109150,-0.00069367,0.,-0.25794358,0.13201163,0.,-0.01503555,0.01539
 994,0.,0.26648302,0.,0.00001221,0.00000152,0.,0.00000036,0.00000195,0.
 ,-0.00000158,0.00000223,0.,-0.00000749,0.00000909,0.,-0.00000272,-0.00
 000220,0.,0.00000914,-0.00001602,0.,0.,0.00001428,0.,-0.00002920,0.000
 08200,0.,-0.00005403,-0.00003237,0.,-0.00044280,-0.00002892,0.,-0.0000
 7797,0.00029300,0.,0.00210551,0.00143373,0.,-0.00131797,-0.00035715,0.
 ,0.02938515,-0.01314182,0.,-0.00103013,-0.00513557,0.,0.12792539,-0.14
 492295,0.,-0.01286517,0.01006067,0.,-0.14360867,0.15173855\\0.,0.00003
 982,0.00002655,0.,-0.00001463,-0.00001638,0.,-0.00001717,-0.00001924,0
 .,-0.00003607,0.00002939,0.,0.00000516,-0.00001066,0.,0.00008182,-0.00
 004217,0.,-0.00002289,0.00000619,0.,-0.00009623,0.00003061,0.,0.000020
 27,-0.00000705,0.,0.00009590,-0.00003306,0.,-0.00002012,0.00000685,0.,
 -0.00008128,0.00004500,0.,0.00002282,-0.00000597,0.,0.00003626,-0.0000
 2999,0.,-0.00000554,0.00001119,0.,-0.00003970,-0.00002637,0.,0.0000145
 2,0.00001603,0.,0.00001706,0.00001909\\\@
 The archive entry for this job was punched.


 I DO NOT KNOW WHAT I MAY APPEAR TO THE WORLD; BUT TO MYSELF
 I SEEM TO HAVE BEEN ONLY LIKE A BOY PLAYING ON THE SEASHORE,
 AND DIVERTING MYSELF IN NOW AND THEN FINDING A SMOOTHER PEBBLE
 OR A PRETTIER SHELL THAN ORDINARY, WHILST THE GREAT OCEAN OF
 TRUTH LAY ALL UNDISCOVERED BEFORE ME.
                                          -- NEWTON (1642-1726)
 Job cpu time:       0 days  0 hours  0 minutes 37.7 seconds.
 Elapsed time:       0 days  0 hours  0 minutes 38.3 seconds.
 File lengths (MBytes):  RWF=     59 Int=      0 D2E=      0 Chk=      4 Scr=      1
 Normal termination of Gaussian 16 at Thu Mar 16 21:35:00 2023.
