 Entering Gaussian System, Link 0=g16
 Initial command:
 /home/wangzhe/g16/l1.exe "/home/wangzhe/g16/Scratch/Gau-151991.inp" -scrdir="/home/wangzhe/g16/Scratch/"
 Default is to use a total of  16 processors:
                               16 via shared-memory
                                1 via Linda
 Entering Link 1 = /home/wangzhe/g16/l1.exe PID=    151994.
  
 Copyright (c) 1988-2017, Gaussian, Inc.  All Rights Reserved.
  
 This is part of the Gaussian(R) 16 program.  It is based on
 the Gaussian(R) 09 system (copyright 2009, Gaussian, Inc.),
 the Gaussian(R) 03 system (copyright 2003, Gaussian, Inc.),
 the Gaussian(R) 98 system (copyright 1998, Gaussian, Inc.),
 the Gaussian(R) 94 system (copyright 1995, Gaussian, Inc.),
 the Gaussian 92(TM) system (copyright 1992, Gaussian, Inc.),
 the Gaussian 90(TM) system (copyright 1990, Gaussian, Inc.),
 the Gaussian 88(TM) system (copyright 1988, Gaussian, Inc.),
 the Gaussian 86(TM) system (copyright 1986, Carnegie Mellon
 University), and the Gaussian 82(TM) system (copyright 1983,
 Carnegie Mellon University). Gaussian is a federally registered
 trademark of Gaussian, Inc.
  
 This software contains proprietary and confidential information,
 including trade secrets, belonging to Gaussian, Inc.
  
 This software is provided under written license and may be
 used, copied, transmitted, or stored only in accord with that
 written license.
  
 The following legend is applicable only to US Government
 contracts under FAR:
  
                    RESTRICTED RIGHTS LEGEND
  
 Use, reproduction and disclosure by the US Government is
 subject to restrictions as set forth in subparagraphs (a)
 and (c) of the Commercial Computer Software - Restricted
 Rights clause in FAR 52.227-19.
  
 Gaussian, Inc.
 340 Quinnipiac St., Bldg. 40, Wallingford CT 06492
  
  
 ---------------------------------------------------------------
 Warning -- This program may not be used in any manner that
 competes with the business of Gaussian, Inc. or will provide
 assistance to any competitor of Gaussian, Inc.  The licensee
 of this program is prohibited from giving any competitor of
 Gaussian, Inc. access to this program.  By using this program,
 the user acknowledges that Gaussian, Inc. is engaged in the
 business of creating and licensing software in the field of
 computational chemistry and represents and warrants to the
 licensee that it is not a competitor of Gaussian, Inc. and that
 it will not use this program in any manner prohibited above.
 ---------------------------------------------------------------
  

 Cite this work as:
 Gaussian 16, Revision B.01,
 M. J. Frisch, G. W. Trucks, H. B. Schlegel, G. E. Scuseria, 
 M. A. Robb, J. R. Cheeseman, G. Scalmani, V. Barone, 
 G. A. Petersson, H. Nakatsuji, X. Li, M. Caricato, A. V. Marenich, 
 J. Bloino, B. G. Janesko, R. Gomperts, B. Mennucci, H. P. Hratchian, 
 J. V. Ortiz, A. F. Izmaylov, J. L. Sonnenberg, D. Williams-Young, 
 F. Ding, F. Lipparini, F. Egidi, J. Goings, B. Peng, A. Petrone, 
 T. Henderson, D. Ranasinghe, V. G. Zakrzewski, J. Gao, N. Rega, 
 G. Zheng, W. Liang, M. Hada, M. Ehara, K. Toyota, R. Fukuda, 
 J. Hasegawa, M. Ishida, T. Nakajima, Y. Honda, O. Kitao, H. Nakai, 
 T. Vreven, K. Throssell, J. A. Montgomery, Jr., J. E. Peralta, 
 F. Ogliaro, M. J. Bearpark, J. J. Heyd, E. N. Brothers, K. N. Kudin, 
 V. N. Staroverov, T. A. Keith, R. Kobayashi, J. Normand, 
 K. Raghavachari, A. P. Rendell, J. C. Burant, S. S. Iyengar, 
 J. Tomasi, M. Cossi, J. M. Millam, M. Klene, C. Adamo, R. Cammi, 
 J. W. Ochterski, R. L. Martin, K. Morokuma, O. Farkas, 
 J. B. Foresman, and D. J. Fox, Gaussian, Inc., Wallingford CT, 2016.
 
 ******************************************
 Gaussian 16:  ES64L-G16RevB.01 20-Dec-2017
                17-Mar-2023 
 ******************************************
 %nproc=8
 Will use up to    8 processors via shared memory.
 %mem=10GB
 --------------------------
 #p opt freq b3lyp/6-31G(d)
 --------------------------
 1/18=20,19=15,26=3,38=1/1,3;
 2/9=110,12=2,17=6,18=5,40=1/2;
 3/5=1,6=6,7=1,11=2,25=1,30=1,71=1,74=-5/1,2,3;
 4//1;
 5/5=2,38=5/2;
 6/7=2,8=2,9=2,10=2,28=1/1;
 7//1,2,3,16;
 1/18=20,19=15,26=3/3(2);
 2/9=110/2;
 99//99;
 2/9=110/2;
 3/5=1,6=6,7=1,11=2,25=1,30=1,71=1,74=-5/1,2,3;
 4/5=5,16=3,69=1/1;
 5/5=2,38=5/2;
 7//1,2,3,16;
 1/18=20,19=15,26=3/3(-5);
 2/9=110/2;
 6/7=2,8=2,9=2,10=2,19=2,28=1/1;
 99/9=1/99;
 Leave Link    1 at Fri Mar 17 10:26:55 2023, MaxMem=  1342177280 cpu:               0.3 elap:               0.0
 (Enter /home/wangzhe/g16/l101.exe)
 -----
 title
 -----
 Symbolic Z-matrix:
 Charge =  0 Multiplicity = 1
 C                    -0.70753   1.2529    0. 
 C                    -1.43881  -0.01372   0. 
 C                    -0.73128  -1.23918   0. 
 C                    -2.84661  -0.05188   0. 
 C                    -3.54307  -1.23983   0. 
 C                    -2.84526  -2.44847   0. 
 C                    -1.46823  -2.4393    0. 
 C                     0.73128  -1.23918   0. 
 C                     1.43881  -0.01372   0. 
 C                     0.70753   1.2529    0. 
 C                    -1.37838   2.49118   0. 
 H                    -3.40961   0.86812   0. 
 H                    -4.62475  -1.2321    0. 
 H                    -3.37941  -3.3891    0. 
 H                    -0.95299  -3.38686   0. 
 C                     1.46823  -2.4393    0. 
 C                     2.84661  -0.05188   0. 
 C                     1.37838   2.49118   0. 
 C                     0.69781   3.6883    0. 
 C                    -0.69781   3.6883    0. 
 H                    -2.45661   2.51875   0. 
 H                    -1.24534   4.6212    0. 
 H                     1.24534   4.6212    0. 
 H                     2.45661   2.51875   0. 
 C                     2.84526  -2.44847   0. 
 C                     3.54307  -1.23983   0. 
 H                     0.95299  -3.38686   0. 
 H                     3.40961   0.86812   0. 
 H                     3.37941  -3.3891    0. 
 H                     4.62475  -1.2321    0. 
 
 ITRead=  0  0  0  0  0  0  0  0  0  0  0  0  0  0  0  0  0  0  0  0
 ITRead=  0  0  0  0  0  0  0  0  0  0
 MicOpt= -1 -1 -1 -1 -1 -1 -1 -1 -1 -1 -1 -1 -1 -1 -1 -1 -1 -1 -1 -1
 MicOpt= -1 -1 -1 -1 -1 -1 -1 -1 -1 -1
 NAtoms=     30 NQM=       30 NQMF=       0 NMMI=      0 NMMIF=      0
                NMic=       0 NMicF=      0.
                    Isotopes and Nuclear Properties:
 (Nuclear quadrupole moments (NQMom) in fm**2, nuclear magnetic moments (NMagM)
  in nuclear magnetons)

  Atom         1           2           3           4           5           6           7           8           9          10
 IAtWgt=          12          12          12          12          12          12          12          12          12          12
 AtmWgt=  12.0000000  12.0000000  12.0000000  12.0000000  12.0000000  12.0000000  12.0000000  12.0000000  12.0000000  12.0000000
 NucSpn=           0           0           0           0           0           0           0           0           0           0
 AtZEff=  -0.0000000  -0.0000000  -0.0000000  -0.0000000  -0.0000000  -0.0000000  -0.0000000  -0.0000000  -0.0000000  -0.0000000
 NQMom=    0.0000000   0.0000000   0.0000000   0.0000000   0.0000000   0.0000000   0.0000000   0.0000000   0.0000000   0.0000000
 NMagM=    0.0000000   0.0000000   0.0000000   0.0000000   0.0000000   0.0000000   0.0000000   0.0000000   0.0000000   0.0000000
 AtZNuc=   6.0000000   6.0000000   6.0000000   6.0000000   6.0000000   6.0000000   6.0000000   6.0000000   6.0000000   6.0000000

  Atom        11          12          13          14          15          16          17          18          19          20
 IAtWgt=          12           1           1           1           1          12          12          12          12          12
 AtmWgt=  12.0000000   1.0078250   1.0078250   1.0078250   1.0078250  12.0000000  12.0000000  12.0000000  12.0000000  12.0000000
 NucSpn=           0           1           1           1           1           0           0           0           0           0
 AtZEff=  -0.0000000  -0.0000000  -0.0000000  -0.0000000  -0.0000000  -0.0000000  -0.0000000  -0.0000000  -0.0000000  -0.0000000
 NQMom=    0.0000000   0.0000000   0.0000000   0.0000000   0.0000000   0.0000000   0.0000000   0.0000000   0.0000000   0.0000000
 NMagM=    0.0000000   2.7928460   2.7928460   2.7928460   2.7928460   0.0000000   0.0000000   0.0000000   0.0000000   0.0000000
 AtZNuc=   6.0000000   1.0000000   1.0000000   1.0000000   1.0000000   6.0000000   6.0000000   6.0000000   6.0000000   6.0000000

  Atom        21          22          23          24          25          26          27          28          29          30
 IAtWgt=           1           1           1           1          12          12           1           1           1           1
 AtmWgt=   1.0078250   1.0078250   1.0078250   1.0078250  12.0000000  12.0000000   1.0078250   1.0078250   1.0078250   1.0078250
 NucSpn=           1           1           1           1           0           0           1           1           1           1
 AtZEff=  -0.0000000  -0.0000000  -0.0000000  -0.0000000  -0.0000000  -0.0000000  -0.0000000  -0.0000000  -0.0000000  -0.0000000
 NQMom=    0.0000000   0.0000000   0.0000000   0.0000000   0.0000000   0.0000000   0.0000000   0.0000000   0.0000000   0.0000000
 NMagM=    2.7928460   2.7928460   2.7928460   2.7928460   0.0000000   0.0000000   2.7928460   2.7928460   2.7928460   2.7928460
 AtZNuc=   1.0000000   1.0000000   1.0000000   1.0000000   6.0000000   6.0000000   1.0000000   1.0000000   1.0000000   1.0000000
 Leave Link  101 at Fri Mar 17 10:26:55 2023, MaxMem=  1342177280 cpu:               0.6 elap:               0.1
 (Enter /home/wangzhe/g16/l103.exe)

 GradGradGradGradGradGradGradGradGradGradGradGradGradGradGradGradGradGrad
 Berny optimization.
 Initialization pass.
                           ----------------------------
                           !    Initial Parameters    !
                           ! (Angstroms and Degrees)  !
 --------------------------                            --------------------------
 ! Name  Definition              Value          Derivative Info.                !
 --------------------------------------------------------------------------------
 ! R1    R(1,2)                  1.4626         estimate D2E/DX2                !
 ! R2    R(1,10)                 1.4151         estimate D2E/DX2                !
 ! R3    R(1,11)                 1.4083         estimate D2E/DX2                !
 ! R4    R(2,3)                  1.4151         estimate D2E/DX2                !
 ! R5    R(2,4)                  1.4083         estimate D2E/DX2                !
 ! R6    R(3,7)                  1.4083         estimate D2E/DX2                !
 ! R7    R(3,8)                  1.4626         estimate D2E/DX2                !
 ! R8    R(4,5)                  1.3771         estimate D2E/DX2                !
 ! R9    R(4,12)                 1.0786         estimate D2E/DX2                !
 ! R10   R(5,6)                  1.3956         estimate D2E/DX2                !
 ! R11   R(5,13)                 1.0817         estimate D2E/DX2                !
 ! R12   R(6,7)                  1.3771         estimate D2E/DX2                !
 ! R13   R(6,14)                 1.0817         estimate D2E/DX2                !
 ! R14   R(7,15)                 1.0786         estimate D2E/DX2                !
 ! R15   R(8,9)                  1.4151         estimate D2E/DX2                !
 ! R16   R(8,16)                 1.4083         estimate D2E/DX2                !
 ! R17   R(9,10)                 1.4626         estimate D2E/DX2                !
 ! R18   R(9,17)                 1.4083         estimate D2E/DX2                !
 ! R19   R(10,18)                1.4083         estimate D2E/DX2                !
 ! R20   R(11,20)                1.3771         estimate D2E/DX2                !
 ! R21   R(11,21)                1.0786         estimate D2E/DX2                !
 ! R22   R(16,25)                1.3771         estimate D2E/DX2                !
 ! R23   R(16,27)                1.0786         estimate D2E/DX2                !
 ! R24   R(17,26)                1.3771         estimate D2E/DX2                !
 ! R25   R(17,28)                1.0786         estimate D2E/DX2                !
 ! R26   R(18,19)                1.3771         estimate D2E/DX2                !
 ! R27   R(18,24)                1.0786         estimate D2E/DX2                !
 ! R28   R(19,20)                1.3956         estimate D2E/DX2                !
 ! R29   R(19,23)                1.0817         estimate D2E/DX2                !
 ! R30   R(20,22)                1.0817         estimate D2E/DX2                !
 ! R31   R(25,26)                1.3956         estimate D2E/DX2                !
 ! R32   R(25,29)                1.0817         estimate D2E/DX2                !
 ! R33   R(26,30)                1.0817         estimate D2E/DX2                !
 ! A1    A(2,1,10)             120.0            estimate D2E/DX2                !
 ! A2    A(2,1,11)             121.5527         estimate D2E/DX2                !
 ! A3    A(10,1,11)            118.4473         estimate D2E/DX2                !
 ! A4    A(1,2,3)              120.0            estimate D2E/DX2                !
 ! A5    A(1,2,4)              121.5527         estimate D2E/DX2                !
 ! A6    A(3,2,4)              118.4473         estimate D2E/DX2                !
 ! A7    A(2,3,7)              118.4473         estimate D2E/DX2                !
 ! A8    A(2,3,8)              120.0            estimate D2E/DX2                !
 ! A9    A(7,3,8)              121.5527         estimate D2E/DX2                !
 ! A10   A(2,4,5)              121.9343         estimate D2E/DX2                !
 ! A11   A(2,4,12)             119.9121         estimate D2E/DX2                !
 ! A12   A(5,4,12)             118.1535         estimate D2E/DX2                !
 ! A13   A(4,5,6)              119.6183         estimate D2E/DX2                !
 ! A14   A(4,5,13)             119.9724         estimate D2E/DX2                !
 ! A15   A(6,5,13)             120.4092         estimate D2E/DX2                !
 ! A16   A(5,6,7)              119.6183         estimate D2E/DX2                !
 ! A17   A(5,6,14)             120.4092         estimate D2E/DX2                !
 ! A18   A(7,6,14)             119.9725         estimate D2E/DX2                !
 ! A19   A(3,7,6)              121.9344         estimate D2E/DX2                !
 ! A20   A(3,7,15)             119.9121         estimate D2E/DX2                !
 ! A21   A(6,7,15)             118.1535         estimate D2E/DX2                !
 ! A22   A(3,8,9)              120.0            estimate D2E/DX2                !
 ! A23   A(3,8,16)             121.5527         estimate D2E/DX2                !
 ! A24   A(9,8,16)             118.4473         estimate D2E/DX2                !
 ! A25   A(8,9,10)             120.0            estimate D2E/DX2                !
 ! A26   A(8,9,17)             118.4473         estimate D2E/DX2                !
 ! A27   A(10,9,17)            121.5527         estimate D2E/DX2                !
 ! A28   A(1,10,9)             120.0            estimate D2E/DX2                !
 ! A29   A(1,10,18)            118.4473         estimate D2E/DX2                !
 ! A30   A(9,10,18)            121.5527         estimate D2E/DX2                !
 ! A31   A(1,11,20)            121.9344         estimate D2E/DX2                !
 ! A32   A(1,11,21)            119.9121         estimate D2E/DX2                !
 ! A33   A(20,11,21)           118.1535         estimate D2E/DX2                !
 ! A34   A(8,16,25)            121.9344         estimate D2E/DX2                !
 ! A35   A(8,16,27)            119.9121         estimate D2E/DX2                !
 ! A36   A(25,16,27)           118.1535         estimate D2E/DX2                !
 ! A37   A(9,17,26)            121.9343         estimate D2E/DX2                !
 ! A38   A(9,17,28)            119.9121         estimate D2E/DX2                !
 ! A39   A(26,17,28)           118.1535         estimate D2E/DX2                !
 ! A40   A(10,18,19)           121.9344         estimate D2E/DX2                !
 ! A41   A(10,18,24)           119.9121         estimate D2E/DX2                !
 ! A42   A(19,18,24)           118.1535         estimate D2E/DX2                !
 ! A43   A(18,19,20)           119.6183         estimate D2E/DX2                !
 ! A44   A(18,19,23)           119.9725         estimate D2E/DX2                !
 ! A45   A(20,19,23)           120.4092         estimate D2E/DX2                !
 ! A46   A(11,20,19)           119.6183         estimate D2E/DX2                !
 ! A47   A(11,20,22)           119.9725         estimate D2E/DX2                !
 ! A48   A(19,20,22)           120.4092         estimate D2E/DX2                !
 ! A49   A(16,25,26)           119.6183         estimate D2E/DX2                !
 ! A50   A(16,25,29)           119.9725         estimate D2E/DX2                !
 ! A51   A(26,25,29)           120.4092         estimate D2E/DX2                !
 ! A52   A(17,26,25)           119.6183         estimate D2E/DX2                !
 ! A53   A(17,26,30)           119.9724         estimate D2E/DX2                !
 ! A54   A(25,26,30)           120.4092         estimate D2E/DX2                !
 ! D1    D(10,1,2,3)             0.0            estimate D2E/DX2                !
 ! D2    D(10,1,2,4)           180.0            estimate D2E/DX2                !
 ! D3    D(11,1,2,3)           180.0            estimate D2E/DX2                !
 ! D4    D(11,1,2,4)             0.0            estimate D2E/DX2                !
 ! D5    D(2,1,10,9)             0.0            estimate D2E/DX2                !
 ! D6    D(2,1,10,18)          180.0            estimate D2E/DX2                !
 ! D7    D(11,1,10,9)          180.0            estimate D2E/DX2                !
 ! D8    D(11,1,10,18)           0.0            estimate D2E/DX2                !
 ! D9    D(2,1,11,20)          180.0            estimate D2E/DX2                !
 ! D10   D(2,1,11,21)            0.0            estimate D2E/DX2                !
 ! D11   D(10,1,11,20)           0.0            estimate D2E/DX2                !
 ! D12   D(10,1,11,21)         180.0            estimate D2E/DX2                !
 ! D13   D(1,2,3,7)            180.0            estimate D2E/DX2                !
 ! D14   D(1,2,3,8)              0.0            estimate D2E/DX2                !
 ! D15   D(4,2,3,7)              0.0            estimate D2E/DX2                !
 ! D16   D(4,2,3,8)            180.0            estimate D2E/DX2                !
 ! D17   D(1,2,4,5)            180.0            estimate D2E/DX2                !
 ! D18   D(1,2,4,12)             0.0            estimate D2E/DX2                !
 ! D19   D(3,2,4,5)              0.0            estimate D2E/DX2                !
 ! D20   D(3,2,4,12)           180.0            estimate D2E/DX2                !
 ! D21   D(2,3,7,6)              0.0            estimate D2E/DX2                !
 ! D22   D(2,3,7,15)           180.0            estimate D2E/DX2                !
 ! D23   D(8,3,7,6)            180.0            estimate D2E/DX2                !
 ! D24   D(8,3,7,15)             0.0            estimate D2E/DX2                !
 ! D25   D(2,3,8,9)              0.0            estimate D2E/DX2                !
 ! D26   D(2,3,8,16)           180.0            estimate D2E/DX2                !
 ! D27   D(7,3,8,9)            180.0            estimate D2E/DX2                !
 ! D28   D(7,3,8,16)             0.0            estimate D2E/DX2                !
 ! D29   D(2,4,5,6)              0.0            estimate D2E/DX2                !
 ! D30   D(2,4,5,13)           180.0            estimate D2E/DX2                !
 ! D31   D(12,4,5,6)           180.0            estimate D2E/DX2                !
 ! D32   D(12,4,5,13)            0.0            estimate D2E/DX2                !
 ! D33   D(4,5,6,7)              0.0            estimate D2E/DX2                !
 ! D34   D(4,5,6,14)           180.0            estimate D2E/DX2                !
 ! D35   D(13,5,6,7)           180.0            estimate D2E/DX2                !
 ! D36   D(13,5,6,14)            0.0            estimate D2E/DX2                !
 ! D37   D(5,6,7,3)              0.0            estimate D2E/DX2                !
 ! D38   D(5,6,7,15)           180.0            estimate D2E/DX2                !
 ! D39   D(14,6,7,3)           180.0            estimate D2E/DX2                !
 ! D40   D(14,6,7,15)            0.0            estimate D2E/DX2                !
 ! D41   D(3,8,9,10)             0.0            estimate D2E/DX2                !
 ! D42   D(3,8,9,17)           180.0            estimate D2E/DX2                !
 ! D43   D(16,8,9,10)          180.0            estimate D2E/DX2                !
 ! D44   D(16,8,9,17)            0.0            estimate D2E/DX2                !
 ! D45   D(3,8,16,25)          180.0            estimate D2E/DX2                !
 ! D46   D(3,8,16,27)            0.0            estimate D2E/DX2                !
 ! D47   D(9,8,16,25)            0.0            estimate D2E/DX2                !
 ! D48   D(9,8,16,27)          180.0            estimate D2E/DX2                !
 ! D49   D(8,9,10,1)             0.0            estimate D2E/DX2                !
 ! D50   D(8,9,10,18)          180.0            estimate D2E/DX2                !
 ! D51   D(17,9,10,1)          180.0            estimate D2E/DX2                !
 ! D52   D(17,9,10,18)           0.0            estimate D2E/DX2                !
 ! D53   D(8,9,17,26)            0.0            estimate D2E/DX2                !
 ! D54   D(8,9,17,28)          180.0            estimate D2E/DX2                !
 ! D55   D(10,9,17,26)         180.0            estimate D2E/DX2                !
 ! D56   D(10,9,17,28)           0.0            estimate D2E/DX2                !
 ! D57   D(1,10,18,19)           0.0            estimate D2E/DX2                !
 ! D58   D(1,10,18,24)         180.0            estimate D2E/DX2                !
 ! D59   D(9,10,18,19)         180.0            estimate D2E/DX2                !
 ! D60   D(9,10,18,24)           0.0            estimate D2E/DX2                !
 ! D61   D(1,11,20,19)           0.0            estimate D2E/DX2                !
 ! D62   D(1,11,20,22)         180.0            estimate D2E/DX2                !
 ! D63   D(21,11,20,19)        180.0            estimate D2E/DX2                !
 ! D64   D(21,11,20,22)          0.0            estimate D2E/DX2                !
 ! D65   D(8,16,25,26)           0.0            estimate D2E/DX2                !
 ! D66   D(8,16,25,29)         180.0            estimate D2E/DX2                !
 ! D67   D(27,16,25,26)        180.0            estimate D2E/DX2                !
 ! D68   D(27,16,25,29)          0.0            estimate D2E/DX2                !
 ! D69   D(9,17,26,25)           0.0            estimate D2E/DX2                !
 ! D70   D(9,17,26,30)         180.0            estimate D2E/DX2                !
 ! D71   D(28,17,26,25)        180.0            estimate D2E/DX2                !
 ! D72   D(28,17,26,30)          0.0            estimate D2E/DX2                !
 ! D73   D(10,18,19,20)          0.0            estimate D2E/DX2                !
 ! D74   D(10,18,19,23)        180.0            estimate D2E/DX2                !
 ! D75   D(24,18,19,20)        180.0            estimate D2E/DX2                !
 ! D76   D(24,18,19,23)          0.0            estimate D2E/DX2                !
 ! D77   D(18,19,20,11)          0.0            estimate D2E/DX2                !
 ! D78   D(18,19,20,22)        180.0            estimate D2E/DX2                !
 ! D79   D(23,19,20,11)        180.0            estimate D2E/DX2                !
 ! D80   D(23,19,20,22)          0.0            estimate D2E/DX2                !
 ! D81   D(16,25,26,17)          0.0            estimate D2E/DX2                !
 ! D82   D(16,25,26,30)        180.0            estimate D2E/DX2                !
 ! D83   D(29,25,26,17)        180.0            estimate D2E/DX2                !
 ! D84   D(29,25,26,30)          0.0            estimate D2E/DX2                !
 --------------------------------------------------------------------------------
 Trust Radius=3.00D-01 FncErr=1.00D-07 GrdErr=1.00D-06 EigMax=2.50D+02 EigMin=1.00D-04
 Number of steps in this run=    180 maximum allowed number of steps=    180.
 GradGradGradGradGradGradGradGradGradGradGradGradGradGradGradGradGradGrad

 Leave Link  103 at Fri Mar 17 10:26:55 2023, MaxMem=  1342177280 cpu:               0.0 elap:               0.0
 (Enter /home/wangzhe/g16/l202.exe)
                          Input orientation:                          
 ---------------------------------------------------------------------
 Center     Atomic      Atomic             Coordinates (Angstroms)
 Number     Number       Type             X           Y           Z
 ---------------------------------------------------------------------
      1          6           0       -0.707526    1.252900    0.000000
      2          6           0       -1.438806   -0.013715    0.000000
      3          6           0       -0.731280   -1.239185    0.000000
      4          6           0       -2.846612   -0.051875    0.000000
      5          6           0       -3.543069   -1.239828    0.000000
      6          6           0       -2.845257   -2.448474    0.000000
      7          6           0       -1.468231   -2.439301    0.000000
      8          6           0        0.731280   -1.239185    0.000000
      9          6           0        1.438806   -0.013715    0.000000
     10          6           0        0.707526    1.252900    0.000000
     11          6           0       -1.378381    2.491176    0.000000
     12          1           0       -3.409606    0.868115    0.000000
     13          1           0       -4.624748   -1.232102    0.000000
     14          1           0       -3.379406   -3.389098    0.000000
     15          1           0       -0.952993   -3.386863    0.000000
     16          6           0        1.468231   -2.439301    0.000000
     17          6           0        2.846612   -0.051875    0.000000
     18          6           0        1.378381    2.491176    0.000000
     19          6           0        0.697812    3.688302    0.000000
     20          6           0       -0.697812    3.688302    0.000000
     21          1           0       -2.456613    2.518748    0.000000
     22          1           0       -1.245342    4.621201    0.000000
     23          1           0        1.245342    4.621201    0.000000
     24          1           0        2.456613    2.518748    0.000000
     25          6           0        2.845257   -2.448474    0.000000
     26          6           0        3.543069   -1.239828    0.000000
     27          1           0        0.952993   -3.386863    0.000000
     28          1           0        3.409606    0.868115    0.000000
     29          1           0        3.379406   -3.389098    0.000000
     30          1           0        4.624748   -1.232102    0.000000
 ---------------------------------------------------------------------
                    Distance matrix (angstroms):
                    1          2          3          4          5
     1  C    0.000000
     2  C    1.462561   0.000000
     3  C    2.492198   1.415051   0.000000
     4  C    2.505619   1.408323   2.425765   0.000000
     5  C    3.775447   2.435421   2.811789   1.377057   0.000000
     6  C    4.274349   2.811789   2.435422   2.396599   1.395624
     7  C    3.769751   2.425764   1.408324   2.756762   2.396599
     8  C    2.877612   2.492198   1.462560   3.769750   4.274349
     9  C    2.492199   2.877612   2.492198   4.285588   5.130539
    10  C    1.415052   2.492199   2.877612   3.786071   4.927601
    11  C    1.408323   2.505620   3.786071   2.936462   4.313498
    12  H    2.729340   2.159092   3.407953   1.078584   2.112164
    13  H    4.638951   3.410967   3.893474   2.134175   1.081707
    14  H    5.356033   3.893474   3.410967   3.379486   2.155492
    15  H    4.646252   3.407953   2.159092   3.835093   3.364261
    16  C    4.285588   3.786071   2.505619   4.931295   5.152850
    17  C    3.786071   4.285588   3.769750   5.693224   6.499173
    18  C    2.425765   3.769751   4.285588   4.931295   6.175845
    19  C    2.811789   4.274350   5.130539   5.152850   6.501656
    20  C    2.435421   3.775447   4.927601   4.313498   5.690514
    21  H    2.159092   2.729341   4.135074   2.600039   3.912452
    22  H    3.410967   4.638952   5.882889   4.939808   6.295332
    23  H    3.893475   5.356034   6.184752   6.211419   7.568391
    24  H    3.407953   4.646252   4.927953   5.893411   7.079765
    25  C    5.130540   4.927601   3.775447   6.175845   6.501656
    26  C    4.927601   5.130539   4.274349   6.499173   7.086138
    27  H    4.927953   4.135073   2.729340   5.055605   4.982402
    28  H    4.135074   4.927953   4.646251   6.323499   7.265199
    29  H    6.184752   5.882889   4.638951   7.064019   7.248450
    30  H    5.882889   6.184752   5.356033   7.564004   8.167821
                    6          7          8          9         10
     6  C    0.000000
     7  C    1.377057   0.000000
     8  C    3.775447   2.505619   0.000000
     9  C    4.927601   3.786071   1.415051   0.000000
    10  C    5.130540   4.285588   2.492198   1.462561   0.000000
    11  C    5.152850   4.931296   4.285588   3.769751   2.425765
    12  H    3.364261   3.835093   4.646251   4.927953   4.135074
    13  H    2.155493   3.379486   5.356033   6.184752   5.882889
    14  H    1.081706   2.134175   4.638951   5.882889   6.184752
    15  H    2.112164   1.078584   2.729340   4.135073   4.927953
    16  C    4.313498   2.936462   1.408324   2.425764   3.769751
    17  C    6.175845   4.931295   2.425765   1.408323   2.505619
    18  C    6.499174   5.693224   3.786071   2.505620   1.408323
    19  C    7.086138   6.499174   4.927601   3.775447   2.435421
    20  C    6.501657   6.175845   5.130539   4.274350   2.811789
    21  H    4.982403   5.055606   4.927953   4.646252   3.407953
    22  H    7.248450   7.064019   6.184752   5.356034   3.893475
    23  H    8.167821   7.564005   5.882889   4.638952   3.410967
    24  H    7.265199   6.323500   4.135074   2.729341   2.159092
    25  C    5.690514   4.313498   2.435422   2.811789   4.274349
    26  C    6.501656   5.152850   2.811789   2.435421   3.775447
    27  H    3.912452   2.600038   2.159092   3.407953   4.646252
    28  H    7.079765   5.893411   3.407953   2.159092   2.729340
    29  H    6.295332   4.939808   3.410967   3.893474   5.356033
    30  H    7.568391   6.211419   3.893474   3.410967   4.638951
                   11         12         13         14         15
    11  C    0.000000
    12  H    2.600039   0.000000
    13  H    4.939807   2.426413   0.000000
    14  H    6.211419   4.257320   2.490684   0.000000
    15  H    5.893411   4.913226   4.257321   2.426414   0.000000
    16  C    5.693224   5.893411   6.211419   4.939808   2.600038
    17  C    4.931295   6.323499   7.564004   7.064019   5.055605
    18  C    2.756762   5.055605   7.064018   7.564004   6.323500
    19  C    2.396599   4.982403   7.248450   8.167821   7.265199
    20  C    1.377057   3.912452   6.295332   7.568391   7.079765
    21  H    1.078584   1.905987   4.332399   5.979481   6.094023
    22  H    2.134176   4.332400   6.758812   8.289700   8.013399
    23  H    3.379486   5.979481   8.289699   9.249496   8.304322
    24  H    3.835093   6.094023   8.013398   8.304322   6.819212
    25  C    6.499174   7.079765   7.568391   6.295332   3.912452
    26  C    6.175845   7.265199   8.167821   7.248450   4.982402
    27  H    6.323500   6.094022   5.979481   4.332400   1.905986
    28  H    5.055605   6.819212   8.304322   8.013398   6.094022
    29  H    7.564004   8.013398   8.289699   6.758812   4.332400
    30  H    7.064018   8.304322   9.249496   8.289699   5.979481
                   16         17         18         19         20
    16  C    0.000000
    17  C    2.756762   0.000000
    18  C    4.931296   2.936462   0.000000
    19  C    6.175845   4.313498   1.377057   0.000000
    20  C    6.499174   5.152850   2.396599   1.395624   0.000000
    21  H    6.323500   5.893411   3.835093   3.364261   2.112164
    22  H    7.564005   6.211419   3.379486   2.155493   1.081707
    23  H    7.064019   4.939808   2.134176   1.081707   2.155493
    24  H    5.055606   2.600039   1.078584   2.112164   3.364261
    25  C    1.377057   2.396599   5.152850   6.501657   7.086138
    26  C    2.396599   1.377057   4.313498   5.690514   6.501656
    27  H    1.078584   3.835093   5.893411   7.079765   7.265199
    28  H    3.835093   1.078584   2.600039   3.912452   4.982403
    29  H    2.134175   3.379486   6.211419   7.568391   8.167821
    30  H    3.379486   2.134175   4.939807   6.295332   7.248450
                   21         22         23         24         25
    21  H    0.000000
    22  H    2.426414   0.000000
    23  H    4.257321   2.490684   0.000000
    24  H    4.913226   4.257321   2.426414   0.000000
    25  C    7.265199   8.167821   7.248450   4.982403   0.000000
    26  C    7.079765   7.568391   6.295332   3.912452   1.395624
    27  H    6.819212   8.304322   8.013399   6.094023   2.112164
    28  H    6.094023   5.979481   4.332400   1.905987   3.364261
    29  H    8.304322   9.249496   8.289700   5.979481   1.081706
    30  H    8.013398   8.289699   6.758812   4.332399   2.155493
                   26         27         28         29         30
    26  C    0.000000
    27  H    3.364261   0.000000
    28  H    2.112164   4.913226   0.000000
    29  H    2.155492   2.426414   4.257320   0.000000
    30  H    1.081707   4.257321   2.426413   2.490684   0.000000
 Stoichiometry    C18H12
 Framework group  D3H[SGH(C18H12)]
 Deg. of freedom    10
 Full point group                 D3H     NOp  12
 Largest Abelian subgroup         C2V     NOp   4
 Largest concise Abelian subgroup C2      NOp   2
                         Standard orientation:                         
 ---------------------------------------------------------------------
 Center     Atomic      Atomic             Coordinates (Angstroms)
 Number     Number       Type             X           Y           Z
 ---------------------------------------------------------------------
      1          6           0        0.707526    1.252900    0.000000
      2          6           0        1.438806   -0.013715   -0.000000
      3          6           0        0.731280   -1.239185    0.000000
      4          6           0        2.846612   -0.051875    0.000000
      5          6           0        3.543069   -1.239828    0.000000
      6          6           0        2.845257   -2.448474    0.000000
      7          6           0        1.468231   -2.439301    0.000000
      8          6           0       -0.731280   -1.239185    0.000000
      9          6           0       -1.438806   -0.013715   -0.000000
     10          6           0       -0.707526    1.252900   -0.000000
     11          6           0        1.378381    2.491176    0.000000
     12          1           0        3.409606    0.868115    0.000000
     13          1           0        4.624748   -1.232102    0.000000
     14          1           0        3.379406   -3.389098    0.000000
     15          1           0        0.952993   -3.386863    0.000000
     16          6           0       -1.468231   -2.439301    0.000000
     17          6           0       -2.846612   -0.051875   -0.000000
     18          6           0       -1.378381    2.491176   -0.000000
     19          6           0       -0.697812    3.688302   -0.000000
     20          6           0        0.697812    3.688302    0.000000
     21          1           0        2.456613    2.518748    0.000000
     22          1           0        1.245342    4.621200    0.000000
     23          1           0       -1.245342    4.621200   -0.000000
     24          1           0       -2.456613    2.518748   -0.000000
     25          6           0       -2.845257   -2.448474    0.000000
     26          6           0       -3.543069   -1.239828   -0.000000
     27          1           0       -0.952993   -3.386863    0.000000
     28          1           0       -3.409606    0.868115   -0.000000
     29          1           0       -3.379406   -3.389098    0.000000
     30          1           0       -4.624748   -1.232102   -0.000000
 ---------------------------------------------------------------------
 Rotational constants (GHZ):           0.5155415           0.5155415           0.2577708
 Leave Link  202 at Fri Mar 17 10:26:55 2023, MaxMem=  1342177280 cpu:               0.0 elap:               0.0
 (Enter /home/wangzhe/g16/l301.exe)
 Standard basis: 6-31G(d) (6D, 7F)
 Ernie: Thresh=  0.10000D-02 Tol=  0.10000D-05 Strict=F.
 There are   111 symmetry adapted cartesian basis functions of A1  symmetry.
 There are    36 symmetry adapted cartesian basis functions of A2  symmetry.
 There are   111 symmetry adapted cartesian basis functions of B1  symmetry.
 There are    36 symmetry adapted cartesian basis functions of B2  symmetry.
 There are   111 symmetry adapted basis functions of A1  symmetry.
 There are    36 symmetry adapted basis functions of A2  symmetry.
 There are   111 symmetry adapted basis functions of B1  symmetry.
 There are    36 symmetry adapted basis functions of B2  symmetry.
   294 basis functions,   552 primitive gaussians,   294 cartesian basis functions
    60 alpha electrons       60 beta electrons
       nuclear repulsion energy      1160.0453655543 Hartrees.
 IExCor=  402 DFT=T Ex+Corr=B3LYP ExCW=0 ScaHFX=  0.200000
 ScaDFX=  0.800000  0.720000  1.000000  0.810000 ScalE2=  1.000000  1.000000
 IRadAn=      5 IRanWt=     -1 IRanGd=            0 ICorTp=0 IEmpDi=  4
 NAtoms=   30 NActive=   30 NUniq=    5 SFac= 4.00D+00 NAtFMM=   60 NAOKFM=F Big=F
 Integral buffers will be    131072 words long.
 Raffenetti 2 integral format.
 Two-electron integral symmetry is turned on.
 Leave Link  301 at Fri Mar 17 10:26:56 2023, MaxMem=  1342177280 cpu:               0.1 elap:               0.0
 (Enter /home/wangzhe/g16/l302.exe)
 NPDir=0 NMtPBC=     1 NCelOv=     1 NCel=       1 NClECP=     1 NCelD=      1
         NCelK=      1 NCelE2=     1 NClLst=     1 CellRange=     0.0.
 One-electron integrals computed using PRISM.
 One-electron integral symmetry used in STVInt
 NBasis=   294 RedAO= T EigKep=  1.30D-04  NBF=   111    36   111    36
 NBsUse=   294 1.00D-06 EigRej= -1.00D+00 NBFU=   111    36   111    36
 Precomputing XC quadrature grid using
 IXCGrd= 4 IRadAn=           5 IRanWt=          -1 IRanGd=           0 AccXCQ= 0.00D+00.
 Generated NRdTot=       0 NPtTot=           0 NUsed=           0 NTot=          32
 NSgBfM=   293   293   293   293   293 MxSgAt=    30 MxSgA2=    30.
 Leave Link  302 at Fri Mar 17 10:26:56 2023, MaxMem=  1342177280 cpu:               1.2 elap:               0.2
 (Enter /home/wangzhe/g16/l303.exe)
 DipDrv:  MaxL=1.
 Leave Link  303 at Fri Mar 17 10:26:56 2023, MaxMem=  1342177280 cpu:               0.1 elap:               0.0
 (Enter /home/wangzhe/g16/l401.exe)
 ExpMin= 1.61D-01 ExpMax= 3.05D+03 ExpMxC= 4.57D+02 IAcc=3 IRadAn=         5 AccDes= 0.00D+00
 Harris functional with IExCor=  402 and IRadAn=       5 diagonalized for initial guess.
 HarFok:  IExCor=  402 AccDes= 0.00D+00 IRadAn=         5 IDoV= 1 UseB2=F ITyADJ=14
 ICtDFT=  3500011 ScaDFX=  1.000000  1.000000  1.000000  1.000000
 FoFCou: FMM=F IPFlag=           0 FMFlag=      100000 FMFlg1=           0
         NFxFlg=           0 DoJE=T BraDBF=F KetDBF=T FulRan=T
         wScrn=  0.000000 ICntrl=       500 IOpCl=  0 I1Cent=   200000004 NGrid=           0
         NMat0=    1 NMatS0=      1 NMatT0=    0 NMatD0=    1 NMtDS0=    0 NMtDT0=    0
 Petite list used in FoFCou.
 Harris En= -693.201337268218    
 JPrj=0 DoOrth=F DoCkMO=F.
 Initial guess orbital symmetries:
       Occupied  (E') (E') (A1') (A2') (E') (E') (E') (E') (A1')
                 (A2') (E') (E') (A1') (E') (E') (E') (E') (A2')
                 (A1') (E') (E') (A1') (E') (E') (A2') (E') (E')
                 (A1') (E') (E') (E') (E') (A2') (A1') (A1') (E')
                 (E') (E') (E') (E') (E') (E') (E') (A1') (A2')
                 (A2") (A2') (E') (E') (A1') (E") (E") (E') (E')
                 (A2") (E") (E") (A1") (E") (E")
       Virtual   (E") (E") (A2") (E") (E") (A1") (E") (E") (A1')
                 (E') (E') (E') (E') (A1') (E') (E') (A1") (A2')
                 (E') (E') (A1') (E') (E') (A2') (E') (E') (A1')
                 (A2') (E') (E') (E') (E') (E') (E') (A2') (A2')
                 (A1') (A2") (E') (E') (E') (E') (E") (E") (A1')
                 (E') (E') (A1') (E') (E') (E') (E') (E") (E")
                 (A2") (A2') (A1') (E') (E') (A2') (A1') (E') (E')
                 (A2") (A1") (A2') (E") (E") (E") (E") (E") (E")
                 (A1") (E') (E') (A2') (A1') (E") (E") (E') (E')
                 (E') (E') (A2') (A1') (E') (E') (A2') (E') (E')
                 (A1") (A1') (E') (E') (E') (E') (A2') (E') (E')
                 (E') (E') (E') (E') (A1') (A1') (A2') (A2") (A2")
                 (E') (E') (E") (E") (E') (E') (A2') (E") (E")
                 (A2') (A2") (E") (E") (A2") (A1') (E') (E') (A1")
                 (E") (E") (E") (E") (E') (E') (E') (E') (E') (E')
                 (A1') (A1') (A1') (A1") (A2') (E') (E') (E") (E")
                 (E') (E') (A1') (E') (E') (E') (E') (A2') (A1')
                 (E') (E') (E') (E') (A2') (E") (E") (A2') (A2")
                 (E') (E') (A1') (E') (E') (E") (E") (A1") (E")
                 (E") (E') (E') (A2') (A2") (E") (E") (A1") (E")
                 (E") (A2') (E') (E') (E') (E') (A1') (E') (E')
                 (A1") (E") (E") (A1') (E') (E') (A2') (E') (E')
                 (A1") (A1') (E') (E') (E') (E') (A2') (E') (E')
                 (A2') (E') (E') (A2') (E') (E') (A2') (A2') (A1')
                 (E') (E') (A1') (E') (E') (E') (E') (A2') (E')
                 (E') (A1') (E') (E') (A2') (E') (E') (A2')
 The electronic state of the initial guess is 1-A1'.
 Leave Link  401 at Fri Mar 17 10:26:56 2023, MaxMem=  1342177280 cpu:               1.4 elap:               0.2
 (Enter /home/wangzhe/g16/l502.exe)
 Keep R1 ints in memory in symmetry-blocked form, NReq=1191709551.
 FoFCou: FMM=F IPFlag=           0 FMFlag=           0 FMFlg1=           0
         NFxFlg=           0 DoJE=F BraDBF=F KetDBF=F FulRan=T
         wScrn=  0.000000 ICntrl=       600 IOpCl=  0 I1Cent=           0 NGrid=           0
         NMat0=    1 NMatS0=  43365 NMatT0=    0 NMatD0=    1 NMtDS0=    0 NMtDT0=    0
 Petite list used in FoFCou.
 Closed shell SCF:
 Using DIIS extrapolation, IDIIS=  1040.
 NGot=  1342177280 LenX=  1090574779 LenY=  1090487902
 Requested convergence on RMS density matrix=1.00D-08 within 128 cycles.
 Requested convergence on MAX density matrix=1.00D-06.
 Requested convergence on             energy=1.00D-06.
 No special actions if energy rises.
 Integral accuracy reduced to 1.0D-05 until final iterations.

 Cycle   1  Pass 0  IDiag  1:
 E= -692.817705610464    
 DIIS: error= 4.66D-02 at cycle   1 NSaved=   1.
 NSaved= 1 IEnMin= 1 EnMin= -692.817705610464     IErMin= 1 ErrMin= 4.66D-02
 ErrMax= 4.66D-02  0.00D+00 EMaxC= 1.00D-01 BMatC= 3.27D-01 BMatP= 3.27D-01
 IDIUse=3 WtCom= 5.34D-01 WtEn= 4.66D-01
 Coeff-Com:  0.100D+01
 Coeff-En:   0.100D+01
 Coeff:      0.100D+01
 Gap=     0.182 Goal=   None    Shift=    0.000
 GapD=    0.182 DampG=1.000 DampE=0.500 DampFc=0.5000 IDamp=-1.
 Damping current iteration by 5.00D-01
 RMSDP=5.88D-03 MaxDP=1.09D-01              OVMax= 1.36D-01

 Cycle   2  Pass 0  IDiag  1:
 E= -692.996748769439     Delta-E=       -0.179043158976 Rises=F Damp=T
 DIIS: error= 8.17D-03 at cycle   2 NSaved=   2.
 NSaved= 2 IEnMin= 2 EnMin= -692.996748769439     IErMin= 2 ErrMin= 8.17D-03
 ErrMax= 8.17D-03  0.00D+00 EMaxC= 1.00D-01 BMatC= 2.01D-02 BMatP= 3.27D-01
 IDIUse=3 WtCom= 9.18D-01 WtEn= 8.17D-02
 Coeff-Com: -0.439D-01 0.104D+01
 Coeff-En:   0.000D+00 0.100D+01
 Coeff:     -0.403D-01 0.104D+01
 Gap=     0.185 Goal=   None    Shift=    0.000
 RMSDP=2.06D-03 MaxDP=4.61D-02 DE=-1.79D-01 OVMax= 8.28D-02

 Cycle   3  Pass 0  IDiag  1:
 E= -693.163976936756     Delta-E=       -0.167228167317 Rises=F Damp=F
 DIIS: error= 1.11D-02 at cycle   3 NSaved=   3.
 NSaved= 3 IEnMin= 3 EnMin= -693.163976936756     IErMin= 2 ErrMin= 8.17D-03
 ErrMax= 1.11D-02  0.00D+00 EMaxC= 1.00D-01 BMatC= 1.53D-02 BMatP= 2.01D-02
 IDIUse=3 WtCom= 8.89D-01 WtEn= 1.11D-01
 Coeff-Com: -0.682D-01 0.505D+00 0.563D+00
 Coeff-En:   0.000D+00 0.000D+00 0.100D+01
 Coeff:     -0.606D-01 0.449D+00 0.611D+00
 Gap=     0.183 Goal=   None    Shift=    0.000
 RMSDP=8.81D-04 MaxDP=1.97D-02 DE=-1.67D-01 OVMax= 6.11D-02

 Cycle   4  Pass 0  IDiag  1:
 E= -693.166606035990     Delta-E=       -0.002629099233 Rises=F Damp=F
 DIIS: error= 1.04D-02 at cycle   4 NSaved=   4.
 NSaved= 4 IEnMin= 4 EnMin= -693.166606035990     IErMin= 2 ErrMin= 8.17D-03
 ErrMax= 1.04D-02  0.00D+00 EMaxC= 1.00D-01 BMatC= 1.16D-02 BMatP= 1.53D-02
 IDIUse=3 WtCom= 8.96D-01 WtEn= 1.04D-01
 Coeff-Com: -0.334D-01 0.140D+00 0.463D+00 0.431D+00
 Coeff-En:   0.000D+00 0.000D+00 0.467D+00 0.533D+00
 Coeff:     -0.299D-01 0.125D+00 0.463D+00 0.441D+00
 Gap=     0.182 Goal=   None    Shift=    0.000
 RMSDP=4.93D-04 MaxDP=9.86D-03 DE=-2.63D-03 OVMax= 3.29D-02

 Cycle   5  Pass 0  IDiag  1:
 E= -693.180174810187     Delta-E=       -0.013568774197 Rises=F Damp=F
 DIIS: error= 6.01D-04 at cycle   5 NSaved=   5.
 NSaved= 5 IEnMin= 5 EnMin= -693.180174810187     IErMin= 5 ErrMin= 6.01D-04
 ErrMax= 6.01D-04  0.00D+00 EMaxC= 1.00D-01 BMatC= 8.66D-05 BMatP= 1.16D-02
 IDIUse=3 WtCom= 9.94D-01 WtEn= 6.01D-03
 Coeff-Com: -0.455D-02 0.981D-02 0.111D+00 0.154D+00 0.730D+00
 Coeff-En:   0.000D+00 0.000D+00 0.000D+00 0.000D+00 0.100D+01
 Coeff:     -0.452D-02 0.975D-02 0.111D+00 0.153D+00 0.732D+00
 Gap=     0.182 Goal=   None    Shift=    0.000
 RMSDP=5.85D-05 MaxDP=8.33D-04 DE=-1.36D-02 OVMax= 2.29D-03

 Cycle   6  Pass 0  IDiag  1:
 E= -693.180266897940     Delta-E=       -0.000092087753 Rises=F Damp=F
 DIIS: error= 1.34D-04 at cycle   6 NSaved=   6.
 NSaved= 6 IEnMin= 6 EnMin= -693.180266897940     IErMin= 6 ErrMin= 1.34D-04
 ErrMax= 1.34D-04  0.00D+00 EMaxC= 1.00D-01 BMatC= 3.03D-06 BMatP= 8.66D-05
 IDIUse=3 WtCom= 9.99D-01 WtEn= 1.34D-03
 Coeff-Com: -0.148D-02 0.231D-02 0.421D-01 0.616D-01 0.323D+00 0.572D+00
 Coeff-En:   0.000D+00 0.000D+00 0.000D+00 0.000D+00 0.000D+00 0.100D+01
 Coeff:     -0.148D-02 0.231D-02 0.420D-01 0.615D-01 0.323D+00 0.573D+00
 Gap=     0.182 Goal=   None    Shift=    0.000
 RMSDP=9.28D-06 MaxDP=2.11D-04 DE=-9.21D-05 OVMax= 4.79D-04

 Initial convergence to 1.0D-05 achieved.  Increase integral accuracy.
 Cycle   7  Pass 1  IDiag  1:
 E= -693.180231258209     Delta-E=        0.000035639731 Rises=F Damp=F
 DIIS: error= 4.93D-05 at cycle   1 NSaved=   1.
 NSaved= 1 IEnMin= 1 EnMin= -693.180231258209     IErMin= 1 ErrMin= 4.93D-05
 ErrMax= 4.93D-05  0.00D+00 EMaxC= 1.00D-01 BMatC= 5.65D-07 BMatP= 5.65D-07
 IDIUse=1 WtCom= 1.00D+00 WtEn= 0.00D+00
 Coeff-Com:  0.100D+01
 Coeff:      0.100D+01
 Gap=     0.182 Goal=   None    Shift=    0.000
 RMSDP=9.28D-06 MaxDP=2.11D-04 DE= 3.56D-05 OVMax= 3.48D-04

 Cycle   8  Pass 1  IDiag  1:
 E= -693.180230551419     Delta-E=        0.000000706790 Rises=F Damp=F
 DIIS: error= 7.78D-05 at cycle   2 NSaved=   2.
 NSaved= 2 IEnMin= 1 EnMin= -693.180231258209     IErMin= 1 ErrMin= 4.93D-05
 ErrMax= 7.78D-05  0.00D+00 EMaxC= 1.00D-01 BMatC= 1.29D-06 BMatP= 5.65D-07
 IDIUse=1 WtCom= 1.00D+00 WtEn= 0.00D+00
 Coeff-Com:  0.603D+00 0.397D+00
 Coeff:      0.603D+00 0.397D+00
 Gap=     0.182 Goal=   None    Shift=    0.000
 RMSDP=4.22D-06 MaxDP=1.04D-04 DE= 7.07D-07 OVMax= 2.26D-04

 Cycle   9  Pass 1  IDiag  1:
 E= -693.180231794345     Delta-E=       -0.000001242925 Rises=F Damp=F
 DIIS: error= 4.37D-06 at cycle   3 NSaved=   3.
 NSaved= 3 IEnMin= 3 EnMin= -693.180231794345     IErMin= 3 ErrMin= 4.37D-06
 ErrMax= 4.37D-06  0.00D+00 EMaxC= 1.00D-01 BMatC= 3.58D-09 BMatP= 5.65D-07
 IDIUse=1 WtCom= 1.00D+00 WtEn= 0.00D+00
 Coeff-Com:  0.223D+00 0.157D+00 0.620D+00
 Coeff:      0.223D+00 0.157D+00 0.620D+00
 Gap=     0.182 Goal=   None    Shift=    0.000
 RMSDP=4.04D-07 MaxDP=8.21D-06 DE=-1.24D-06 OVMax= 3.03D-05

 Cycle  10  Pass 1  IDiag  1:
 E= -693.180231795284     Delta-E=       -0.000000000940 Rises=F Damp=F
 DIIS: error= 4.96D-06 at cycle   4 NSaved=   4.
 NSaved= 4 IEnMin= 4 EnMin= -693.180231795284     IErMin= 3 ErrMin= 4.37D-06
 ErrMax= 4.96D-06  0.00D+00 EMaxC= 1.00D-01 BMatC= 2.56D-09 BMatP= 3.58D-09
 IDIUse=1 WtCom= 1.00D+00 WtEn= 0.00D+00
 Coeff-Com:  0.784D-01 0.599D-01 0.454D+00 0.408D+00
 Coeff:      0.784D-01 0.599D-01 0.454D+00 0.408D+00
 Gap=     0.182 Goal=   None    Shift=    0.000
 RMSDP=2.36D-07 MaxDP=4.70D-06 DE=-9.40D-10 OVMax= 1.66D-05

 Cycle  11  Pass 1  IDiag  1:
 E= -693.180231798184     Delta-E=       -0.000000002900 Rises=F Damp=F
 DIIS: error= 5.86D-07 at cycle   5 NSaved=   5.
 NSaved= 5 IEnMin= 5 EnMin= -693.180231798184     IErMin= 5 ErrMin= 5.86D-07
 ErrMax= 5.86D-07  0.00D+00 EMaxC= 1.00D-01 BMatC= 4.27D-11 BMatP= 2.56D-09
 IDIUse=1 WtCom= 1.00D+00 WtEn= 0.00D+00
 Coeff-Com: -0.701D-02-0.279D-02 0.640D-01 0.147D+00 0.799D+00
 Coeff:     -0.701D-02-0.279D-02 0.640D-01 0.147D+00 0.799D+00
 Gap=     0.182 Goal=   None    Shift=    0.000
 RMSDP=3.88D-08 MaxDP=6.26D-07 DE=-2.90D-09 OVMax= 2.65D-06

 Cycle  12  Pass 1  IDiag  1:
 E= -693.180231798244     Delta-E=       -0.000000000060 Rises=F Damp=F
 DIIS: error= 4.38D-08 at cycle   6 NSaved=   6.
 NSaved= 6 IEnMin= 6 EnMin= -693.180231798244     IErMin= 6 ErrMin= 4.38D-08
 ErrMax= 4.38D-08  0.00D+00 EMaxC= 1.00D-01 BMatC= 6.34D-13 BMatP= 4.27D-11
 IDIUse=1 WtCom= 1.00D+00 WtEn= 0.00D+00
 Coeff-Com: -0.297D-02-0.163D-02 0.813D-02 0.348D-01 0.213D+00 0.748D+00
 Coeff:     -0.297D-02-0.163D-02 0.813D-02 0.348D-01 0.213D+00 0.748D+00
 Gap=     0.182 Goal=   None    Shift=    0.000
 RMSDP=7.22D-09 MaxDP=1.18D-07 DE=-5.98D-11 OVMax= 4.51D-07

 SCF Done:  E(RB3LYP) =  -693.180231798     A.U. after   12 cycles
            NFock= 12  Conv=0.72D-08     -V/T= 2.0093
 KE= 6.867941968586D+02 PE=-3.925117169335D+03 EE= 1.385097375123D+03
 Leave Link  502 at Fri Mar 17 10:27:03 2023, MaxMem=  1342177280 cpu:              54.8 elap:               7.5
 (Enter /home/wangzhe/g16/l601.exe)
 Copying SCF densities to generalized density rwf, IOpCl= 0 IROHF=0.

 **********************************************************************

            Population analysis using the SCF Density.

 **********************************************************************

 Orbital symmetries:
       Occupied  (A1') (E') (E') (E') (E') (A2') (E') (E') (A1')
                 (A2') (E') (E') (E') (E') (A1') (A2') (E') (E')
                 (A1') (E') (E') (A1') (E') (E') (A2') (E') (E')
                 (A1') (E') (E') (E') (E') (A2') (A1') (E') (E')
                 (A1') (E') (E') (E') (E') (E') (E') (A1') (A2')
                 (A2") (A2') (E") (E") (A1') (E') (E') (E') (E')
                 (A2") (E") (E") (A1") (E") (E")
       Virtual   (E") (E") (A2") (E") (E") (A1") (A1') (E') (E')
                 (E') (E') (A1') (E") (E") (A2') (E') (E') (E')
                 (E') (A1") (E') (E') (A2') (A1') (E') (E') (A1')
                 (A2') (E') (E') (E') (E') (E') (E') (A2') (A1')
                 (A2') (A2") (E") (E") (E') (E') (A1') (A1') (E')
                 (E') (E') (E') (E") (E") (E') (E') (A2") (E')
                 (E') (A1') (A2') (E') (E') (A1") (A2") (A1') (E')
                 (E') (E") (E") (A2') (A2') (E") (E") (E") (E")
                 (A1") (E') (E') (E") (E") (A1') (A2') (E') (E')
                 (E') (E') (A2') (E') (E') (A1') (A2') (A1") (E')
                 (E') (E') (E') (A1') (E') (E') (A2') (E') (E')
                 (E') (E') (A1') (E') (E') (A1') (A2') (E') (E')
                 (A2") (A2") (E') (E') (E") (E") (A2') (E") (E")
                 (A2') (A2") (A1') (E") (E") (E') (E') (A2") (E")
                 (E") (A1") (E") (E") (E') (E') (E') (E') (E')
                 (E') (A1') (A1') (A1') (A1") (A2') (E") (E") (E')
                 (E') (E') (E') (E') (E') (A1') (E') (E') (A2')
                 (E') (E') (A2') (A1') (E') (E') (E") (E") (A2')
                 (A2") (E') (E') (A1') (E') (E') (E") (E") (A1")
                 (E") (E") (E') (E') (A2') (A2") (E") (E") (A1")
                 (E") (E") (A2') (E') (E') (E') (E') (A1') (E')
                 (E') (A1") (E") (E") (E') (E') (A1') (A2') (E')
                 (E') (A1") (A1') (E') (E') (A2') (E') (E') (E')
                 (E') (A2') (E') (E') (A2') (E') (E') (A2') (A2')
                 (A1') (E') (E') (A1') (E') (E') (E') (E') (A2')
                 (E') (E') (A1') (E') (E') (A2') (E') (E') (A2')
 The electronic state is 1-A1'.
 Alpha  occ. eigenvalues --  -10.19839 -10.19820 -10.19820 -10.19777 -10.19777
 Alpha  occ. eigenvalues --  -10.19758 -10.18734 -10.18734 -10.18733 -10.18689
 Alpha  occ. eigenvalues --  -10.18689 -10.18689 -10.18630 -10.18630 -10.18629
 Alpha  occ. eigenvalues --  -10.18620 -10.18620 -10.18620  -0.88633  -0.84889
 Alpha  occ. eigenvalues --   -0.84889  -0.78923  -0.77151  -0.77151  -0.72882
 Alpha  occ. eigenvalues --   -0.71857  -0.71857  -0.64017  -0.62334  -0.62334
 Alpha  occ. eigenvalues --   -0.58453  -0.58453  -0.55046  -0.54241  -0.49544
 Alpha  occ. eigenvalues --   -0.49544  -0.48215  -0.46507  -0.46507  -0.42824
 Alpha  occ. eigenvalues --   -0.42824  -0.42089  -0.42089  -0.41638  -0.41407
 Alpha  occ. eigenvalues --   -0.40573  -0.37538  -0.35936  -0.35936  -0.35927
 Alpha  occ. eigenvalues --   -0.35762  -0.35762  -0.31996  -0.31996  -0.29117
 Alpha  occ. eigenvalues --   -0.27826  -0.27826  -0.23470  -0.21514  -0.21514
 Alpha virt. eigenvalues --   -0.03286  -0.03286  -0.02395   0.03438   0.03438
 Alpha virt. eigenvalues --    0.05647   0.09288   0.09885   0.09885   0.13545
 Alpha virt. eigenvalues --    0.13545   0.15524   0.15536   0.15536   0.16894
 Alpha virt. eigenvalues --    0.17504   0.17504   0.22814   0.22814   0.24821
 Alpha virt. eigenvalues --    0.24829   0.24829   0.25573   0.26307   0.30058
 Alpha virt. eigenvalues --    0.30058   0.30103   0.30245   0.31774   0.31774
 Alpha virt. eigenvalues --    0.37630   0.37630   0.41072   0.41072   0.44558
 Alpha virt. eigenvalues --    0.45286   0.47938   0.50255   0.52875   0.52875
 Alpha virt. eigenvalues --    0.54077   0.54077   0.54194   0.55674   0.56124
 Alpha virt. eigenvalues --    0.56124   0.57267   0.57267   0.57485   0.57485
 Alpha virt. eigenvalues --    0.57494   0.57494   0.57586   0.60737   0.60737
 Alpha virt. eigenvalues --    0.61291   0.61568   0.62066   0.62066   0.62168
 Alpha virt. eigenvalues --    0.62398   0.63330   0.63600   0.63600   0.64544
 Alpha virt. eigenvalues --    0.64544   0.64796   0.68715   0.70208   0.70208
 Alpha virt. eigenvalues --    0.73940   0.73940   0.75202   0.80690   0.80690
 Alpha virt. eigenvalues --    0.80996   0.80996   0.82625   0.84130   0.84269
 Alpha virt. eigenvalues --    0.84269   0.87918   0.87918   0.90501   0.91270
 Alpha virt. eigenvalues --    0.91270   0.91403   0.93844   0.94821   0.95668
 Alpha virt. eigenvalues --    0.95668   0.96948   0.96948   0.97822   1.00243
 Alpha virt. eigenvalues --    1.00243   1.01677   1.07131   1.07131   1.10857
 Alpha virt. eigenvalues --    1.10857   1.12078   1.13211   1.13211   1.17860
 Alpha virt. eigenvalues --    1.17964   1.20912   1.20912   1.22389   1.23593
 Alpha virt. eigenvalues --    1.23890   1.23890   1.26581   1.26581   1.26920
 Alpha virt. eigenvalues --    1.35877   1.35877   1.37541   1.43985   1.44535
 Alpha virt. eigenvalues --    1.44989   1.44989   1.45412   1.45412   1.47702
 Alpha virt. eigenvalues --    1.49737   1.49737   1.49954   1.50737   1.50737
 Alpha virt. eigenvalues --    1.51519   1.51519   1.52546   1.52546   1.58614
 Alpha virt. eigenvalues --    1.58614   1.67580   1.71985   1.75475   1.76198
 Alpha virt. eigenvalues --    1.77645   1.81032   1.81032   1.82456   1.82456
 Alpha virt. eigenvalues --    1.85302   1.85302   1.89187   1.89187   1.91816
 Alpha virt. eigenvalues --    1.94479   1.94479   1.95353   1.97642   1.97642
 Alpha virt. eigenvalues --    1.99131   1.99595   2.01042   2.01042   2.07887
 Alpha virt. eigenvalues --    2.07887   2.09234   2.09493   2.12094   2.12094
 Alpha virt. eigenvalues --    2.13209   2.17636   2.17636   2.21874   2.21874
 Alpha virt. eigenvalues --    2.23353   2.24439   2.24439   2.25554   2.25554
 Alpha virt. eigenvalues --    2.28921   2.30343   2.32371   2.32371   2.35075
 Alpha virt. eigenvalues --    2.38583   2.38583   2.39078   2.41803   2.41803
 Alpha virt. eigenvalues --    2.52521   2.52521   2.55101   2.61301   2.61301
 Alpha virt. eigenvalues --    2.61710   2.63272   2.63272   2.68519   2.68519
 Alpha virt. eigenvalues --    2.69643   2.69723   2.72196   2.72196   2.72823
 Alpha virt. eigenvalues --    2.76743   2.82697   2.82697   2.87439   2.87539
 Alpha virt. eigenvalues --    2.87539   2.90231   2.90231   2.98439   3.09955
 Alpha virt. eigenvalues --    3.09955   3.18580   3.37664   3.37664   3.44980
 Alpha virt. eigenvalues --    3.59479   4.07323   4.10179   4.10179   4.10628
 Alpha virt. eigenvalues --    4.11896   4.11896   4.16058   4.16058   4.17682
 Alpha virt. eigenvalues --    4.29000   4.29000   4.30735   4.41335   4.41335
 Alpha virt. eigenvalues --    4.43998   4.65329   4.65329   4.93010
          Condensed to atoms (all electrons):
               1          2          3          4          5          6
     1  C    5.074977   0.212729   0.048590  -0.097208   0.008672  -0.000777
     2  C    0.212729   5.074977   0.363477   0.489833  -0.002823  -0.039347
     3  C    0.048590   0.363477   5.074977  -0.066381  -0.039347  -0.002823
     4  C   -0.097208   0.489833  -0.066381   5.139048   0.506488  -0.020021
     5  C    0.008672  -0.002823  -0.039347   0.506488   4.891222   0.514038
     6  C   -0.000777  -0.039347  -0.002823  -0.020021   0.514038   4.891222
     7  C    0.016736  -0.066381   0.489833  -0.071001  -0.020021   0.506488
     8  C   -0.102809   0.048590   0.212729   0.016736  -0.000777   0.008672
     9  C    0.048590  -0.102809   0.048590  -0.001947   0.000066  -0.000283
    10  C    0.363477   0.048590  -0.102809   0.013438  -0.000283   0.000066
    11  C    0.489833  -0.097208   0.013438  -0.024253   0.000737  -0.000027
    12  H   -0.017750  -0.027786   0.004981   0.344608  -0.048759   0.004893
    13  H   -0.000221   0.002285   0.001283  -0.037119   0.357320  -0.041304
    14  H    0.000017   0.001283   0.002285   0.004267  -0.041304   0.357320
    15  H   -0.000179   0.004981  -0.027786   0.000633   0.004893  -0.048759
    16  C   -0.001947   0.013438  -0.097208  -0.000054  -0.000027   0.000737
    17  C    0.013438  -0.001947   0.016736  -0.000012   0.000000   0.000000
    18  C   -0.066381   0.016736  -0.001947  -0.000054   0.000000   0.000000
    19  C   -0.039347  -0.000777   0.000066  -0.000027   0.000000   0.000000
    20  C   -0.002823   0.008672  -0.000283   0.000737  -0.000016   0.000000
    21  H   -0.027786  -0.017750  -0.000280   0.005584   0.000528  -0.000007
    22  H    0.002285  -0.000221   0.000003   0.000008  -0.000000  -0.000000
    23  H    0.001283   0.000017  -0.000001  -0.000000  -0.000000   0.000000
    24  H    0.004981  -0.000179   0.000015   0.000002  -0.000000  -0.000000
    25  C    0.000066  -0.000283   0.008672   0.000000   0.000000  -0.000016
    26  C   -0.000283   0.000066  -0.000777   0.000000   0.000000   0.000000
    27  H    0.000015  -0.000280  -0.017750   0.000001  -0.000007   0.000528
    28  H   -0.000280   0.000015  -0.000179   0.000000  -0.000000  -0.000000
    29  H   -0.000001   0.000003  -0.000221  -0.000000  -0.000000  -0.000000
    30  H    0.000003  -0.000001   0.000017  -0.000000   0.000000  -0.000000
               7          8          9         10         11         12
     1  C    0.016736  -0.102809   0.048590   0.363477   0.489833  -0.017750
     2  C   -0.066381   0.048590  -0.102809   0.048590  -0.097208  -0.027786
     3  C    0.489833   0.212729   0.048590  -0.102809   0.013438   0.004981
     4  C   -0.071001   0.016736  -0.001947   0.013438  -0.024253   0.344608
     5  C   -0.020021  -0.000777   0.000066  -0.000283   0.000737  -0.048759
     6  C    0.506488   0.008672  -0.000283   0.000066  -0.000027   0.004893
     7  C    5.139048  -0.097208   0.013438  -0.001947  -0.000054   0.000633
     8  C   -0.097208   5.074977   0.363477   0.048590  -0.001947  -0.000179
     9  C    0.013438   0.363477   5.074977   0.212729   0.016736   0.000015
    10  C   -0.001947   0.048590   0.212729   5.074977  -0.066381  -0.000280
    11  C   -0.000054  -0.001947   0.016736  -0.066381   5.139048   0.005584
    12  H    0.000633  -0.000179   0.000015  -0.000280   0.005584   0.599514
    13  H    0.004267   0.000017  -0.000001   0.000003   0.000008  -0.005488
    14  H   -0.037119  -0.000221   0.000003  -0.000001  -0.000000  -0.000224
    15  H    0.344608  -0.017750  -0.000280   0.000015   0.000002   0.000020
    16  C   -0.024253   0.489833  -0.066381   0.016736  -0.000012   0.000002
    17  C   -0.000054  -0.066381   0.489833  -0.097208  -0.000054   0.000000
    18  C   -0.000012   0.013438  -0.097208   0.489833  -0.071001   0.000001
    19  C    0.000000  -0.000283   0.008672  -0.002823  -0.020021  -0.000007
    20  C    0.000000   0.000066  -0.000777  -0.039347   0.506488   0.000528
    21  H    0.000001   0.000015  -0.000179   0.004981   0.344608   0.006202
    22  H   -0.000000  -0.000001   0.000017   0.001283  -0.037119   0.000001
    23  H   -0.000000   0.000003  -0.000221   0.002285   0.004267  -0.000000
    24  H    0.000000  -0.000280  -0.017750  -0.027786   0.000633   0.000000
    25  C    0.000737  -0.002823  -0.039347  -0.000777   0.000000  -0.000000
    26  C   -0.000027  -0.039347  -0.002823   0.008672   0.000000  -0.000000
    27  H    0.005584  -0.027786   0.004981  -0.000179   0.000000   0.000000
    28  H    0.000002   0.004981  -0.027786  -0.017750   0.000001   0.000000
    29  H    0.000008   0.002285   0.001283   0.000017  -0.000000   0.000000
    30  H   -0.000000   0.001283   0.002285  -0.000221  -0.000000  -0.000000
              13         14         15         16         17         18
     1  C   -0.000221   0.000017  -0.000179  -0.001947   0.013438  -0.066381
     2  C    0.002285   0.001283   0.004981   0.013438  -0.001947   0.016736
     3  C    0.001283   0.002285  -0.027786  -0.097208   0.016736  -0.001947
     4  C   -0.037119   0.004267   0.000633  -0.000054  -0.000012  -0.000054
     5  C    0.357320  -0.041304   0.004893  -0.000027   0.000000   0.000000
     6  C   -0.041304   0.357320  -0.048759   0.000737   0.000000   0.000000
     7  C    0.004267  -0.037119   0.344608  -0.024253  -0.000054  -0.000012
     8  C    0.000017  -0.000221  -0.017750   0.489833  -0.066381   0.013438
     9  C   -0.000001   0.000003  -0.000280  -0.066381   0.489833  -0.097208
    10  C    0.000003  -0.000001   0.000015   0.016736  -0.097208   0.489833
    11  C    0.000008  -0.000000   0.000002  -0.000012  -0.000054  -0.071001
    12  H   -0.005488  -0.000224   0.000020   0.000002   0.000000   0.000001
    13  H    0.595688  -0.004832  -0.000224  -0.000000  -0.000000  -0.000000
    14  H   -0.004832   0.595688  -0.005488   0.000008  -0.000000  -0.000000
    15  H   -0.000224  -0.005488   0.599514   0.005584   0.000001   0.000000
    16  C   -0.000000   0.000008   0.005584   5.139048  -0.071001  -0.000054
    17  C   -0.000000  -0.000000   0.000001  -0.071001   5.139048  -0.024253
    18  C   -0.000000  -0.000000   0.000000  -0.000054  -0.024253   5.139048
    19  C   -0.000000   0.000000  -0.000000   0.000000   0.000737   0.506488
    20  C   -0.000000  -0.000000  -0.000000   0.000000  -0.000027  -0.020021
    21  H    0.000001  -0.000000   0.000000   0.000000   0.000002   0.000633
    22  H    0.000000  -0.000000   0.000000  -0.000000  -0.000000   0.004267
    23  H   -0.000000  -0.000000  -0.000000  -0.000000   0.000008  -0.037119
    24  H    0.000000  -0.000000   0.000000   0.000001   0.005584   0.344608
    25  C   -0.000000  -0.000000   0.000528   0.506488  -0.020021  -0.000027
    26  C    0.000000  -0.000000  -0.000007  -0.020021   0.506488   0.000737
    27  H   -0.000000   0.000001   0.006202   0.344608   0.000633   0.000002
    28  H   -0.000000   0.000000   0.000000   0.000633   0.344608   0.005584
    29  H   -0.000000   0.000000   0.000001  -0.037119   0.004267  -0.000000
    30  H   -0.000000  -0.000000  -0.000000   0.004267  -0.037119   0.000008
              19         20         21         22         23         24
     1  C   -0.039347  -0.002823  -0.027786   0.002285   0.001283   0.004981
     2  C   -0.000777   0.008672  -0.017750  -0.000221   0.000017  -0.000179
     3  C    0.000066  -0.000283  -0.000280   0.000003  -0.000001   0.000015
     4  C   -0.000027   0.000737   0.005584   0.000008  -0.000000   0.000002
     5  C    0.000000  -0.000016   0.000528  -0.000000  -0.000000  -0.000000
     6  C    0.000000   0.000000  -0.000007  -0.000000   0.000000  -0.000000
     7  C    0.000000   0.000000   0.000001  -0.000000  -0.000000   0.000000
     8  C   -0.000283   0.000066   0.000015  -0.000001   0.000003  -0.000280
     9  C    0.008672  -0.000777  -0.000179   0.000017  -0.000221  -0.017750
    10  C   -0.002823  -0.039347   0.004981   0.001283   0.002285  -0.027786
    11  C   -0.020021   0.506488   0.344608  -0.037119   0.004267   0.000633
    12  H   -0.000007   0.000528   0.006202   0.000001  -0.000000   0.000000
    13  H   -0.000000  -0.000000   0.000001   0.000000  -0.000000   0.000000
    14  H    0.000000  -0.000000  -0.000000  -0.000000  -0.000000  -0.000000
    15  H   -0.000000  -0.000000   0.000000   0.000000  -0.000000   0.000000
    16  C    0.000000   0.000000   0.000000  -0.000000  -0.000000   0.000001
    17  C    0.000737  -0.000027   0.000002  -0.000000   0.000008   0.005584
    18  C    0.506488  -0.020021   0.000633   0.004267  -0.037119   0.344608
    19  C    4.891222   0.514038   0.004893  -0.041304   0.357320  -0.048759
    20  C    0.514038   4.891222  -0.048759   0.357320  -0.041304   0.004893
    21  H    0.004893  -0.048759   0.599514  -0.005488  -0.000224   0.000020
    22  H   -0.041304   0.357320  -0.005488   0.595688  -0.004832  -0.000224
    23  H    0.357320  -0.041304  -0.000224  -0.004832   0.595688  -0.005488
    24  H   -0.048759   0.004893   0.000020  -0.000224  -0.005488   0.599514
    25  C    0.000000   0.000000  -0.000000   0.000000  -0.000000  -0.000007
    26  C   -0.000016   0.000000  -0.000000  -0.000000  -0.000000   0.000528
    27  H   -0.000000  -0.000000   0.000000  -0.000000   0.000000   0.000000
    28  H    0.000528  -0.000007   0.000000  -0.000000   0.000001   0.006202
    29  H   -0.000000   0.000000  -0.000000  -0.000000  -0.000000  -0.000000
    30  H   -0.000000  -0.000000   0.000000  -0.000000   0.000000   0.000001
              25         26         27         28         29         30
     1  C    0.000066  -0.000283   0.000015  -0.000280  -0.000001   0.000003
     2  C   -0.000283   0.000066  -0.000280   0.000015   0.000003  -0.000001
     3  C    0.008672  -0.000777  -0.017750  -0.000179  -0.000221   0.000017
     4  C    0.000000   0.000000   0.000001   0.000000  -0.000000  -0.000000
     5  C    0.000000   0.000000  -0.000007  -0.000000  -0.000000   0.000000
     6  C   -0.000016   0.000000   0.000528  -0.000000  -0.000000  -0.000000
     7  C    0.000737  -0.000027   0.005584   0.000002   0.000008  -0.000000
     8  C   -0.002823  -0.039347  -0.027786   0.004981   0.002285   0.001283
     9  C   -0.039347  -0.002823   0.004981  -0.027786   0.001283   0.002285
    10  C   -0.000777   0.008672  -0.000179  -0.017750   0.000017  -0.000221
    11  C    0.000000   0.000000   0.000000   0.000001  -0.000000  -0.000000
    12  H   -0.000000  -0.000000   0.000000   0.000000   0.000000  -0.000000
    13  H   -0.000000   0.000000  -0.000000  -0.000000  -0.000000  -0.000000
    14  H   -0.000000  -0.000000   0.000001   0.000000   0.000000  -0.000000
    15  H    0.000528  -0.000007   0.006202   0.000000   0.000001  -0.000000
    16  C    0.506488  -0.020021   0.344608   0.000633  -0.037119   0.004267
    17  C   -0.020021   0.506488   0.000633   0.344608   0.004267  -0.037119
    18  C   -0.000027   0.000737   0.000002   0.005584  -0.000000   0.000008
    19  C    0.000000  -0.000016  -0.000000   0.000528  -0.000000  -0.000000
    20  C    0.000000   0.000000  -0.000000  -0.000007   0.000000  -0.000000
    21  H   -0.000000  -0.000000   0.000000   0.000000  -0.000000   0.000000
    22  H    0.000000  -0.000000  -0.000000  -0.000000  -0.000000  -0.000000
    23  H   -0.000000  -0.000000   0.000000   0.000001  -0.000000   0.000000
    24  H   -0.000007   0.000528   0.000000   0.006202  -0.000000   0.000001
    25  C    4.891222   0.514038  -0.048759   0.004893   0.357320  -0.041304
    26  C    0.514038   4.891222   0.004893  -0.048759  -0.041304   0.357320
    27  H   -0.048759   0.004893   0.599514   0.000020  -0.005488  -0.000224
    28  H    0.004893  -0.048759   0.000020   0.599514  -0.000224  -0.005488
    29  H    0.357320  -0.041304  -0.005488  -0.000224   0.595688  -0.004832
    30  H   -0.041304   0.357320  -0.000224  -0.005488  -0.004832   0.595688
 Mulliken charges:
               1
     1  C    0.072098
     2  C    0.072098
     3  C    0.072098
     4  C   -0.203306
     5  C   -0.130602
     6  C   -0.130602
     7  C   -0.203306
     8  C    0.072098
     9  C    0.072098
    10  C    0.072098
    11  C   -0.203306
    12  H    0.133492
    13  H    0.128317
    14  H    0.128317
    15  H    0.133492
    16  C   -0.203306
    17  C   -0.203306
    18  C   -0.203306
    19  C   -0.130602
    20  C   -0.130602
    21  H    0.133492
    22  H    0.128317
    23  H    0.128317
    24  H    0.133492
    25  C   -0.130602
    26  C   -0.130602
    27  H    0.133492
    28  H    0.133492
    29  H    0.128317
    30  H    0.128317
 Sum of Mulliken charges =  -0.00000
 Mulliken charges with hydrogens summed into heavy atoms:
               1
     1  C    0.072098
     2  C    0.072098
     3  C    0.072098
     4  C   -0.069814
     5  C   -0.002285
     6  C   -0.002285
     7  C   -0.069814
     8  C    0.072098
     9  C    0.072098
    10  C    0.072098
    11  C   -0.069814
    16  C   -0.069814
    17  C   -0.069814
    18  C   -0.069814
    19  C   -0.002285
    20  C   -0.002285
    25  C   -0.002285
    26  C   -0.002285
 Electronic spatial extent (au):  <R**2>=           4089.2772
 Charge=             -0.0000 electrons
 Dipole moment (field-independent basis, Debye):
    X=             -0.0000    Y=             -0.0000    Z=              0.0000  Tot=              0.0000
 Quadrupole moment (field-independent basis, Debye-Ang):
   XX=            -89.1087   YY=            -89.1087   ZZ=           -109.0080
   XY=             -0.0000   XZ=              0.0000   YZ=             -0.0000
 Traceless Quadrupole moment (field-independent basis, Debye-Ang):
   XX=              6.6331   YY=              6.6331   ZZ=            -13.2662
   XY=             -0.0000   XZ=              0.0000   YZ=             -0.0000
 Octapole moment (field-independent basis, Debye-Ang**2):
  XXX=              0.0000  YYY=              1.0241  ZZZ=             -0.0000  XYY=              0.0000
  XXY=             -1.0241  XXZ=             -0.0000  XZZ=              0.0000  YZZ=             -0.0000
  YYZ=              0.0000  XYZ=             -0.0000
 Hexadecapole moment (field-independent basis, Debye-Ang**3):
 XXXX=          -2505.1541 YYYY=          -2505.1541 ZZZZ=           -112.8925 XXXY=             -0.0000
 XXXZ=             -0.0000 YYYX=             -0.0000 YYYZ=             -0.0000 ZZZX=             -0.0000
 ZZZY=             -0.0000 XXYY=           -835.0514 XXZZ=           -527.3908 YYZZ=           -527.3908
 XXYZ=             -0.0000 YYXZ=             -0.0000 ZZXY=             -0.0000
 N-N= 1.160045365554D+03 E-N=-3.925117201566D+03  KE= 6.867941968586D+02
 Symmetry A1   KE= 3.372171711807D+02
 Symmetry A2   KE= 8.844190479098D+00
 Symmetry B1   KE= 3.303622398577D+02
 Symmetry B2   KE= 1.037059534109D+01
 No NMR shielding tensors so no spin-rotation constants.
 Leave Link  601 at Fri Mar 17 10:27:04 2023, MaxMem=  1342177280 cpu:               0.9 elap:               0.1
 (Enter /home/wangzhe/g16/l701.exe)
 ... and contract with generalized density number  0.
 Compute integral first derivatives.
 Leave Link  701 at Fri Mar 17 10:27:04 2023, MaxMem=  1342177280 cpu:               0.6 elap:               0.1
 (Enter /home/wangzhe/g16/l702.exe)
 L702 exits ... SP integral derivatives will be done elsewhere.
 Leave Link  702 at Fri Mar 17 10:27:04 2023, MaxMem=  1342177280 cpu:               0.0 elap:               0.0
 (Enter /home/wangzhe/g16/l703.exe)
 Integral derivatives from FoFJK, PRISM(SPDF).
 Compute integral first derivatives, UseDBF=F ICtDFT=           0.
 Calling FoFJK, ICntrl=      2127 FMM=F ISym2X=1 I1Cent= 0 IOpClX= 0 NMat=1 NMatS=1 NMatT=0.
 FoFJK:  IHMeth= 1 ICntrl=    2127 DoSepK=F KAlg= 0 I1Cent=           0 FoldK=F
 IRaf=         0 NMat=       1 IRICut=       1 DoRegI=T DoRafI=F ISym2E= 1 IDoP0=0 IntGTp=1.
 FoFCou: FMM=F IPFlag=           0 FMFlag=      100000 FMFlg1=         800
         NFxFlg=           0 DoJE=F BraDBF=F KetDBF=F FulRan=T
         wScrn=  0.000000 ICntrl=      2127 IOpCl=  0 I1Cent=           0 NGrid=           0
         NMat0=    1 NMatS0=      1 NMatT0=    0 NMatD0=    1 NMtDS0=    0 NMtDT0=    0
 Petite list used in FoFCou.
 Leave Link  703 at Fri Mar 17 10:27:05 2023, MaxMem=  1342177280 cpu:               9.3 elap:               1.2
 (Enter /home/wangzhe/g16/l716.exe)
 Dipole        = 7.10542736D-15-3.01980663D-14 2.16936749D-30
 ***** Axes restored to original set *****
 -------------------------------------------------------------------
 Center     Atomic                   Forces (Hartrees/Bohr)
 Number     Number              X              Y              Z
 -------------------------------------------------------------------
      1        6          -0.001436321   -0.001019678    0.000000000
      2        6           0.000164907    0.001753729   -0.000000000
      3        6           0.001601228   -0.000734051   -0.000000000
      4        6           0.000151149    0.002183048    0.000000000
      5        6          -0.002436557   -0.000812407   -0.000000000
      6        6          -0.001921843   -0.001703917   -0.000000000
      7        6           0.001966149   -0.000960625    0.000000000
      8        6          -0.001601228   -0.000734051    0.000000000
      9        6          -0.000164907    0.001753729    0.000000000
     10        6           0.001436321   -0.001019678   -0.000000000
     11        6          -0.001815001   -0.001222423   -0.000000000
     12        1          -0.001874026    0.002868428   -0.000000000
     13        1          -0.003472715    0.000082700   -0.000000000
     14        1          -0.001664737   -0.003048810    0.000000000
     15        1           0.001547118   -0.003057168    0.000000000
     16        6          -0.001966149   -0.000960625   -0.000000000
     17        6          -0.000151149    0.002183048   -0.000000000
     18        6           0.001815001   -0.001222423    0.000000000
     19        6           0.000514713    0.002516324   -0.000000000
     20        6          -0.000514713    0.002516324    0.000000000
     21        1          -0.003421144    0.000188740   -0.000000000
     22        1          -0.001807978    0.002966109    0.000000000
     23        1           0.001807978    0.002966109    0.000000000
     24        1           0.003421144    0.000188740    0.000000000
     25        6           0.001921843   -0.001703917    0.000000000
     26        6           0.002436557   -0.000812407   -0.000000000
     27        1          -0.001547118   -0.003057168    0.000000000
     28        1           0.001874026    0.002868428   -0.000000000
     29        1           0.001664737   -0.003048810   -0.000000000
     30        1           0.003472715    0.000082700   -0.000000000
 -------------------------------------------------------------------
 Cartesian Forces:  Max     0.003472715 RMS     0.001597802
 Leave Link  716 at Fri Mar 17 10:27:05 2023, MaxMem=  1342177280 cpu:               0.1 elap:               0.0
 (Enter /home/wangzhe/g16/l103.exe)

 GradGradGradGradGradGradGradGradGradGradGradGradGradGradGradGradGradGrad
 Berny optimization.
 FormGI is forming the generalized inverse of G from B-inverse, IUseBI=4.
 Internal  Forces:  Max     0.006190414 RMS     0.002099155
 Search for a local minimum.
 Step number   1 out of a maximum of  180
 All quantities printed in internal units (Hartrees-Bohrs-Radians)
 RMS Force = .20992D-02 SwitMx=.10000D-02 MixMth= 1
 Mixed Optimization -- RFO/linear search
 Second derivative matrix not updated -- first step.
 ITU=  0
     Eigenvalues ---    0.01499   0.01499   0.01670   0.01731   0.01731
     Eigenvalues ---    0.01740   0.01752   0.01868   0.01868   0.02129
     Eigenvalues ---    0.02129   0.02132   0.02145   0.02148   0.02148
     Eigenvalues ---    0.02182   0.02182   0.02182   0.02255   0.02255
     Eigenvalues ---    0.02255   0.02268   0.02270   0.02270   0.02318
     Eigenvalues ---    0.02318   0.02319   0.16000   0.16000   0.16000
     Eigenvalues ---    0.16000   0.16000   0.16000   0.16000   0.16000
     Eigenvalues ---    0.16000   0.16000   0.16000   0.16000   0.22000
     Eigenvalues ---    0.22000   0.22000   0.22558   0.22558   0.22601
     Eigenvalues ---    0.24467   0.24500   0.24500   0.25000   0.25000
     Eigenvalues ---    0.25000   0.34888   0.34888   0.35789   0.35789
     Eigenvalues ---    0.35789   0.35789   0.35789   0.35789   0.36166
     Eigenvalues ---    0.36166   0.36166   0.36166   0.36166   0.36166
     Eigenvalues ---    0.36646   0.39392   0.39392   0.40534   0.41429
     Eigenvalues ---    0.41429   0.41435   0.43788   0.43788   0.43955
     Eigenvalues ---    0.45537   0.45546   0.45546   0.48045   0.48045
     Eigenvalues ---    0.48051   0.49195   0.49222   0.49222
 RFO step:  Lambda=-1.73343799D-03 EMin= 1.49870515D-02
 Linear search not attempted -- first point.
 Iteration  1 RMS(Cart)=  0.01227659 RMS(Int)=  0.00000127
 Iteration  2 RMS(Cart)=  0.00000210 RMS(Int)=  0.00000000
 Iteration  3 RMS(Cart)=  0.00000000 RMS(Int)=  0.00000000
 ITry= 1 IFail=0 DXMaxC= 3.99D-02 DCOld= 1.00D+10 DXMaxT= 3.00D-01 DXLimC= 3.00D+00 Rises=F
 ClnCor:  largest displacement from symmetrization is 2.29D-12 for atom    28.
 Variable       Old X    -DE/DX   Delta X   Delta X   Delta X     New X
                                 (Linear)    (Quad)   (Total)
    R1        2.76384   0.00396   0.00000   0.01075   0.01075   2.77459
    R2        2.67406   0.00577   0.00000   0.01314   0.01314   2.68720
    R3        2.66134   0.00503   0.00000   0.01125   0.01125   2.67259
    R4        2.67406   0.00577   0.00000   0.01314   0.01314   2.68720
    R5        2.66134   0.00503   0.00000   0.01125   0.01125   2.67259
    R6        2.66134   0.00503   0.00000   0.01125   0.01125   2.67259
    R7        2.76384   0.00396   0.00000   0.01075   0.01075   2.77459
    R8        2.60226   0.00619   0.00000   0.01250   0.01250   2.61475
    R9        2.03823   0.00342   0.00000   0.00942   0.00942   2.04765
[...]
 0.,-0.00154817,0.00246321,0.,-0.02389098,-0.01731614,0.,-0.13780876,-0
 .31239276,0.,-0.00047493,0.00017773,0.,0.00001223,0.00000034,0.,-0.000
 02566,0.00003500,0.,-0.00004725,-0.00003677,0.,0.00165491,-0.00087278,
 0.,0.00139051,-0.00035477,0.,0.02885581,0.03306146,0.,0.03378275,-0.12
 845397,0.,-0.02113072,0.74403554,0.,0.,0.00520678,0.,0.,0.00562775,0.,
 0.,0.00088521,0.,0.,-0.00041392,0.,0.,0.00040915,0.,0.,0.00023121,0.,0
 .,-0.00082665,0.,0.,-0.00043921,0.,0.,0.00014771,0.,0.,-0.00695724,0.,
 0.,-0.05602770,0.,0.,-0.00026370,0.,0.,-0.00004744,0.,0.,-0.00011436,0
 .,0.,0.00003356,0.,0.,0.00040301,0.,0.,-0.00052138,0.,0.,0.00779846,0.
 ,0.,-0.05871648,0.,0.,0.12557933,-0.01232041,0.00019512,0.,-0.00170320
 ,-0.00126850,0.,0.00001644,0.00027620,0.,-0.00107728,-0.00238702,0.,0.
 00068512,-0.00040390,0.,-0.00005156,-0.00011142,0.,-0.00001951,-0.0000
 7467,0.,-0.00008417,-0.00002148,0.,-0.00057221,-0.00060460,0.,0.000991
 95,0.00279832,0.,-0.34161504,0.00834575,0.,0.00037080,-0.00358289,0.,-
 0.00000153,0.00002500,0.,0.00004095,-0.00006544,0.,0.00001042,0.000019
 45,0.,0.00002874,0.00000700,0.,-0.00003543,0.00032423,0.,0.00069535,0.
 00002943,0.,0.00059046,-0.00338277,0.,-0.01331016,0.00233422,0.,0.3671
 7781,0.02762215,0.00552430,0.,-0.00046298,0.00118246,0.,0.00004392,-0.
 00020662,0.,0.00063415,-0.00295606,0.,-0.00051205,0.00024204,0.,-0.000
 02851,0.00010192,0.,-0.00011002,0.00018535,0.,0.00013650,0.00022355,0.
 ,0.00145010,0.00074130,0.,0.00123528,-0.00508365,0.,0.00887436,-0.0589
 7457,0.,-0.00314889,-0.00351580,0.,0.00000820,-0.00006062,0.,-0.000027
 18,0.00007142,0.,0.00001555,0.00004238,0.,-0.00013876,-0.00000734,0.,0
 .00004508,-0.00053781,0.,0.00016271,-0.00122249,0.,-0.00196488,-0.0047
 2899,0.,-0.03019741,0.00397269,0.,-0.00251009,0.06375473,0.,0.,0.00178
 173,0.,0.,-0.00248430,0.,0.,-0.00001752,0.,0.,-0.00071720,0.,0.,-0.000
 26370,0.,0.,0.00002648,0.,0.,0.00000415,0.,0.,-0.00040344,0.,0.,0.0007
 9888,0.,0.,0.00538204,0.,0.,-0.03446352,0.,0.,0.00227079,0.,0.,-0.0000
 4148,0.,0.,0.00008972,0.,0.,0.00005742,0.,0.,0.00012192,0.,0.,-0.00013
 818,0.,0.,0.00018663,0.,0.,0.00758873,0.,0.,0.00314933,0.,0.,0.0224233
 0,-0.00139900,-0.00282761,0.,0.00080923,-0.00042654,0.,-0.00013247,-0.
 00021212,0.,0.00005939,0.00003185,0.,-0.00004072,0.00005889,0.,0.00003
 703,0.00001187,0.,0.00005751,-0.00008609,0.,-0.00016941,0.00005586,0.,
 0.00015628,0.00015888,0.,-0.00071131,-0.00109431,0.,0.01179264,-0.0154
 0942,0.,-0.00006022,-0.00000888,0.,0.00000153,-0.00001242,0.,0.0000033
 7,0.00000271,0.,-0.00001584,-0.00002398,0.,0.00004136,0.00001171,0.,-0
 .00008469,-0.00004946,0.,-0.00573582,-0.00181583,0.,-0.01024301,0.0296
 7907,0.,-0.13266932,0.12217127,0.,0.00110320,0.00021371,0.,0.13671379,
 -0.00426618,-0.00226394,0.,0.00139760,-0.00054677,0.,-0.00038405,-0.00
 032773,0.,0.00004844,-0.00006888,0.,-0.00001393,0.00004565,0.,-0.00000
 195,-0.00003489,0.,0.00010092,-0.00009391,0.,-0.00013545,0.00001615,0.
 ,0.00003834,0.00015145,0.,-0.00080377,0.00001239,0.,0.01621301,-0.0196
 1046,0.,-0.00002568,-0.00000193,0.,-0.00003301,-0.00002470,0.,-0.00000
 821,-0.00001450,0.,-0.00002175,-0.00005856,0.,0.00003011,0.00000548,0.
 ,0.00005022,-0.00004541,0.,-0.00041443,0.00149156,0.,-0.00200246,0.004
 04912,0.,0.12176136,-0.26701229,0.,-0.00018012,0.00100649,0.,-0.131609
 17,0.28252490,0.,0.,0.00794398,0.,0.,0.00045960,0.,0.,-0.00059212,0.,0
 .,0.00017229,0.,0.,-0.00004744,0.,0.,0.00002371,0.,0.,0.00001962,0.,0.
 ,0.00028210,0.,0.,-0.00121331,0.,0.,-0.00022405,0.,0.,0.00192005,0.,0.
 ,-0.00004148,0.,0.,0.00000596,0.,0.,0.00000355,0.,0.,-0.00002360,0.,0.
 ,0.00001311,0.,0.,0.00012907,0.,0.,0.00608812,0.,0.,0.00204741,0.,0.,-
 0.03478197,0.,0.,-0.00428218,0.,0.,0.02501305,-0.00071131,0.00109431,0
 .,0.00015628,-0.00015888,0.,-0.00016941,-0.00005586,0.,-0.00008469,0.0
 0004946,0.,0.00007563,-0.00004473,0.,-0.00003982,-0.00000023,0.,0.0000
 4136,-0.00001171,0.,-0.00013247,0.00021212,0.,0.00080923,0.00042654,0.
 ,-0.00139900,0.00282761,0.,-0.00573582,0.00181583,0.,0.00010391,-0.000
 02909,0.,-0.00000765,-0.00000365,0.,0.00000488,-0.00001564,0.,0.000001
 44,-0.00001246,0.,0.00005751,0.00008609,0.,0.00005939,-0.00003185,0.,0
 .01179264,0.01540942,0.,-0.13266932,-0.12217127,0.,-0.01024301,-0.0296
 7907,0.,-0.00074448,-0.00150308,0.,0.00109251,0.00042898,0.,0.13671379
 ,0.00080377,0.00001239,0.,-0.00003834,0.00015145,0.,0.00013545,0.00001
 615,0.,-0.00005022,-0.00004541,0.,-0.00001925,0.00002390,0.,0.00001394
 ,-0.00001431,0.,-0.00003011,0.00000548,0.,0.00038405,-0.00032773,0.,-0
 .00139760,-0.00054677,0.,0.00426618,-0.00226394,0.,0.00041443,0.001491
 56,0.,0.00000917,0.00000846,0.,-0.00001457,-0.00000348,0.,-0.00000946,
 -0.00000962,0.,0.00000681,-0.00000605,0.,-0.00010092,-0.00009391,0.,-0
 .00004844,-0.00006888,0.,-0.01621301,-0.01961046,0.,-0.12176136,-0.267
 01229,0.,0.00200246,0.00404912,0.,0.00018212,0.00007063,0.,-0.00042898
 ,0.00073108,0.,0.13160917,0.28252490,0.,0.,-0.00022405,0.,0.,-0.001213
 31,0.,0.,0.00028210,0.,0.,0.00012907,0.,0.,-0.00011436,0.,0.,0.0000215
 2,0.,0.,0.00001311,0.,0.,-0.00059212,0.,0.,0.00045960,0.,0.,0.00794398
 ,0.,0.,0.00608812,0.,0.,0.00008972,0.,0.,0.00000355,0.,0.,0.00001572,0
 .,0.,0.00000743,0.,0.,0.00001962,0.,0.,0.00017229,0.,0.,0.00192005,0.,
 0.,-0.03478197,0.,0.,0.00204741,0.,0.,0.00024479,0.,0.,-0.00318383,0.,
 0.,0.02501305,0.00099195,-0.00279832,0.,-0.00057221,0.00060460,0.,-0.0
 0008417,0.00002148,0.,-0.00003543,-0.00032423,0.,-0.00003753,0.0000485
 7,0.,-0.00001317,-0.00005358,0.,0.00002874,-0.00000700,0.,0.00001644,-
 0.00027620,0.,-0.00170320,0.00126850,0.,-0.01232041,-0.00019512,0.,0.0
 0069535,-0.00002943,0.,0.00001924,0.00002454,0.,-0.00002808,-0.0000310
 4,0.,-0.00000173,-0.00001430,0.,-0.00000780,-0.00004513,0.,-0.00001951
 ,0.00007467,0.,-0.00107728,0.00238702,0.,-0.34161504,-0.00834575,0.,-0
 .01331016,-0.00233422,0.,0.00059046,0.00338277,0.,-0.00010727,0.000013
 88,0.,-0.00074448,-0.00018212,0.,0.00110320,0.00018012,0.,0.36717781,-
 0.00123528,-0.00508365,0.,-0.00145010,0.00074130,0.,-0.00013650,0.0002
 2355,0.,-0.00004508,-0.00053781,0.,-0.00009690,0.00004923,0.,-0.000014
 82,-0.00002575,0.,0.00013876,-0.00000734,0.,-0.00004392,-0.00020662,0.
 ,0.00046298,0.00118246,0.,-0.02762215,0.00552430,0.,-0.00016271,-0.001
 22249,0.,0.00002064,0.00003357,0.,-0.00002882,-0.00004632,0.,0.0000049
 8,-0.00000288,0.,-0.00003350,-0.00005320,0.,0.00011002,0.00018535,0.,-
 0.00063415,-0.00295606,0.,-0.00887436,-0.05897457,0.,0.03019741,0.0039
 7269,0.,0.00196488,-0.00472899,0.,-0.00001388,0.00021966,0.,0.00150308
 ,0.00007063,0.,-0.00021371,0.00100649,0.,0.00251009,0.06375473,0.,0.,0
 .00538204,0.,0.,0.00079888,0.,0.,-0.00040344,0.,0.,-0.00013818,0.,0.,0
 .00003356,0.,0.,-0.00004794,0.,0.,0.00012192,0.,0.,-0.00001752,0.,0.,-
 0.00248430,0.,0.,0.00178173,0.,0.,0.00018663,0.,0.,0.00005742,0.,0.,-0
 .00002360,0.,0.,0.00000743,0.,0.,-0.00002300,0.,0.,0.00000415,0.,0.,-0
 .00071720,0.,0.,-0.03446352,0.,0.,0.00314933,0.,0.,0.00758873,0.,0.,-0
 .00131821,0.,0.,0.00024479,0.,0.,-0.00428218,0.,0.,0.02242330,-0.00413
 758,-0.00513512,0.,0.00123441,0.00769147,0.,0.01470452,0.00113833,0.,-
 0.00178456,-0.00081765,0.,-0.00005629,0.00252826,0.,0.00272473,-0.0015
 8190,0.,-0.00252551,-0.00352679,0.,-0.03856668,0.06930224,0.,-0.048240
 53,-0.01881787,0.,0.00315927,-0.00629968,0.,-0.00009317,0.00273440,0.,
 0.00000661,-0.00002308,0.,0.00000913,0.00000633,0.,0.00004353,-0.00001
 025,0.,-0.00004381,-0.00001695,0.,-0.37104123,-0.03174604,0.,0.0632477
 6,-0.02481557,0.,0.00099570,0.00257735,0.,0.00183968,-0.00143362,0.,-0
 .00217071,-0.00122625,0.,-0.00001317,0.00001482,0.,-0.00003982,-0.0000
 1394,0.,0.00003703,0.00000195,0.,-0.00005156,0.00002851,0.,0.71234866,
 -0.00320363,-0.00285725,0.,0.00196683,0.00409371,0.,0.00697867,-0.0061
 8869,0.,-0.00085098,-0.00104898,0.,-0.00058839,0.00135169,0.,0.0015819
 0,0.00025248,0.,-0.00243762,-0.00279615,0.,0.02279799,0.03160556,0.,-0
 .02967163,-0.00852926,0.,0.00275378,-0.00576666,0.,-0.00030459,0.00099
 695,0.,0.00012239,0.00000509,0.,-0.00001915,0.00009040,0.,0.00006257,-
 0.00003860,0.,0.00009120,0.00097097,0.,0.03622663,-0.12868674,0.,0.023
 42838,-0.05990011,0.,0.00094858,0.00170089,0.,0.00168303,-0.00054428,0
 .,-0.00091745,-0.00093304,0.,0.00005358,-0.00002575,0.,0.00000023,-0.0
 0001431,0.,-0.00001187,-0.00003489,0.,0.00011142,0.00010192,0.,-0.0337
 5255,0.72217388,0.,0.,-0.00043921,0.,0.,0.00088521,0.,0.,0.00562775,0.
 ,0.,-0.00082665,0.,0.,0.00023121,0.,0.,0.00040915,0.,0.,-0.00041392,0.
 ,0.,0.00520678,0.,0.,-0.00695724,0.,0.,0.00014771,0.,0.,0.00040301,0.,
 0.,0.00003356,0.,0.,-0.00011436,0.,0.,-0.00004744,0.,0.,-0.00026370,0.
 ,0.,-0.05602770,0.,0.,0.00779846,0.,0.,-0.00052138,0.,0.,0.00023121,0.
 ,0.,-0.00025255,0.,0.,-0.00004794,0.,0.,0.00002152,0.,0.,0.00002371,0.
 ,0.,0.00002648,0.,0.,0.12557933,-0.00080328,0.00079037,0.,0.00043345,-
 0.00056454,0.,-0.00199975,-0.00022479,0.,-0.00032772,-0.00044001,0.,-0
 .00031421,0.00015440,0.,-0.00005629,0.00058839,0.,-0.00000218,0.000372
 45,0.,0.00253949,-0.00035378,0.,-0.02581807,0.03015841,0.,-0.00448015,
 -0.00409761,0.,-0.00051033,-0.00011531,0.,-0.00005222,0.00003103,0.,-0
 .00001476,0.00001470,0.,-0.00001261,-0.00004054,0.,0.00000296,0.000142
 89,0.,-0.02851247,-0.02954941,0.,-0.19121552,0.14004906,0.,-0.00014583
 ,-0.00106370,0.,0.00087054,0.00051138,0.,0.00015971,-0.00046368,0.,-0.
 00003753,0.00009690,0.,0.00007563,0.00001925,0.,-0.00004072,0.00001393
 ,0.,0.00068512,0.00051205,0.,-0.17877996,-0.12094993,0.,0.74894815,0.0
 0651501,0.00613140,0.,-0.00249603,-0.00742828,0.,-0.00927825,-0.000607
 63,0.,0.00259898,0.00123150,0.,-0.00015440,-0.00278954,0.,-0.00252826,
 0.00135169,0.,0.00200122,0.00269877,0.,0.01049999,-0.05930928,0.,0.076
 66265,0.01885695,0.,-0.00993795,0.01299598,0.,-0.00008198,-0.00232320,
 0.,-0.00000773,0.00001330,0.,0.00000053,-0.00003938,0.,-0.00002672,0.0
 0001475,0.,0.00005999,0.00004740,0.,-0.07779336,0.03186012,0.,0.072076
 38,-0.30851245,0.,-0.00215288,-0.00517584,0.,-0.00265241,0.00210667,0.
 ,0.00265296,0.00113570,0.,-0.00004857,0.00004923,0.,0.00004473,0.00002
 390,0.,-0.00005889,0.00004565,0.,0.00040390,0.00024204,0.,-0.05338443,
 -0.27943195,0.,-0.01262183,0.68557440,0.,0.,0.00088521,0.,0.,-0.000439
 21,0.,0.,0.00014771,0.,0.,0.00040301,0.,0.,-0.00025255,0.,0.,0.0002312
 1,0.,0.,-0.00052138,0.,0.,-0.00695724,0.,0.,0.00520678,0.,0.,0.0056277
 5,0.,0.,-0.00082665,0.,0.,-0.00004794,0.,0.,0.00002152,0.,0.,0.0000237
 1,0.,0.,0.00002648,0.,0.,0.00779846,0.,0.,-0.05602770,0.,0.,-0.0004139
 2,0.,0.,0.00040915,0.,0.,0.00023121,0.,0.,0.00003356,0.,0.,-0.00011436
 ,0.,0.,-0.00004744,0.,0.,-0.00026370,0.,0.,-0.05871648,0.,0.,0.1255793
 3,0.00019643,-0.00002550,0.,-0.00001224,0.00006048,0.,-0.00028870,-0.0
 0127964,0.,0.00005417,-0.00015256,0.,0.00000296,-0.00005999,0.,-0.0000
 4381,-0.00009120,0.,-0.00324538,0.00188591,0.,0.01310836,0.01294084,0.
 ,-0.00181815,0.00285769,0.,0.00077904,0.00066996,0.,-0.00005537,-0.000
 09020,0.,0.00004955,-0.00000704,0.,0.00002370,-0.00001722,0.,-0.000031
 47,0.00002548,0.,-0.00545910,0.00021700,0.,-0.12217815,-0.11781758,0.,
 -0.00065984,0.00094512,0.,-0.00025230,0.00017029,0.,0.00004847,0.00004
 725,0.,0.00000702,0.00000317,0.,-0.00000780,0.00003350,0.,0.00000144,-
 0.00000681,0.,-0.00001584,0.00002175,0.,0.00001042,-0.00001555,0.,-0.0
 1241314,-0.03071530,0.,-0.00571473,0.00167542,0.,0.13743670,-0.0001834
 9,-0.00005705,0.,0.00029275,-0.00017795,0.,-0.00208516,-0.00023203,0.,
 -0.00011721,0.00011167,0.,-0.00014289,0.00004740,0.,0.00001695,0.00097
 097,0.,-0.00113527,-0.00078796,0.,-0.01448618,-0.01990446,0.,0.0044207
 3,-0.00227354,0.,-0.00138475,-0.00060995,0.,0.00005556,0.00007677,0.,-
 0.00000314,0.00000326,0.,-0.00005548,0.00008867,0.,0.00004229,-0.00003
 068,0.,-0.00021700,0.00231409,0.,-0.11834619,-0.27841145,0.,0.00081184
 ,0.00013269,0.,0.00044944,-0.00032094,0.,-0.00009822,-0.00003677,0.,0.
 00004192,-0.00004593,0.,0.00004513,-0.00005320,0.,0.00001246,-0.000006
 05,0.,0.00002398,-0.00005856,0.,-0.00001945,0.00004238,0.,0.00181632,0
 .00307567,0.,0.00025753,0.00157620,0.,0.13013100,0.29349584,0.,0.,-0.0
 0040344,0.,0.,-0.00001752,0.,0.,-0.00248430,0.,0.,0.00000415,0.,0.,0.0
 0002648,0.,0.,-0.00026370,0.,0.,-0.00071720,0.,0.,0.00178173,0.,0.,0.0
 0538204,0.,0.,0.00079888,0.,0.,0.00012192,0.,0.,0.00005742,0.,0.,0.000
 08972,0.,0.,-0.00004148,0.,0.,0.00227079,0.,0.,-0.03446352,0.,0.,0.000
 18663,0.,0.,-0.00013818,0.,0.,0.00003356,0.,0.,-0.00004794,0.,0.,-0.00
 002300,0.,0.,0.00000743,0.,0.,-0.00002360,0.,0.,0.00005742,0.,0.,0.003
 14933,0.,0.,0.00758873,0.,0.,0.02242330,-0.00028947,0.00013269,0.,0.00
 009681,-0.00024100,0.,0.00004681,-0.00180750,0.,0.00005874,0.00012144,
 0.,-0.00005222,0.00000773,0.,0.00000661,-0.00012239,0.,-0.00057213,0.0
 0026478,0.,-0.00531134,0.00240394,0.,-0.01098211,-0.02839482,0.,0.0012
 1080,-0.00121942,0.,0.00021411,-0.00002487,0.,-0.00007590,0.00000582,0
 .,-0.00000662,0.00000780,0.,-0.00006768,-0.00000596,0.,0.00004955,0.00
 000314,0.,-0.00082623,0.00071578,0.,-0.13709122,-0.12695625,0.,-0.0017
 2735,-0.00025883,0.,0.00074942,0.00047493,0.,0.00012414,-0.00007293,0.
 ,0.00001924,-0.00002064,0.,0.00010391,-0.00000917,0.,-0.00006022,0.000
 02568,0.,0.00037080,0.00314889,0.,-0.00108353,0.00293136,0.,0.01171709
 ,0.01574792,0.,0.00013793,-0.00015545,0.,0.14178430,-0.00009958,0.0000
 9929,0.,-0.00008301,0.00004256,0.,0.00024721,0.00012228,0.,-0.00002432
 ,-0.00003733,0.,-0.00003103,0.00001330,0.,0.00002308,0.00000509,0.,-0.
 00001436,-0.00000111,0.,0.00084089,0.00121965,0.,-0.00096779,0.0041860
 0,0.,-0.00041390,-0.00173154,0.,-0.00006021,-0.00004827,0.,-0.00000582
 ,0.00001490,0.,-0.00001147,0.00000202,0.,-0.00000818,-0.00000672,0.,0.
 00000704,0.00000326,0.,0.00084906,0.00029909,0.,-0.12642764,-0.2634983
 9,0.,0.00276234,-0.00230599,0.,0.00036677,0.00017773,0.,0.00000998,-0.
 00007378,0.,-0.00002454,0.00003357,0.,0.00002909,0.00000846,0.,0.00000
 888,-0.00000193,0.,0.00358289,-0.00351580,0.,0.00434925,-0.00305500,0.
 ,-0.01678370,-0.02105456,0.,-0.00012768,-0.00002554,0.,0.13264109,0.28
 914824,0.,0.,-0.00001752,0.,0.,-0.00040344,0.,0.,0.00079888,0.,0.,0.00
 012192,0.,0.,-0.00004794,0.,0.,0.00003356,0.,0.,-0.00013818,0.,0.,0.00
 538204,0.,0.,0.00178173,0.,0.,-0.00248430,0.,0.,0.00000415,0.,0.,-0.00
 002300,0.,0.,0.00000743,0.,0.,-0.00002360,0.,0.,0.00005742,0.,0.,0.000
 18663,0.,0.,-0.03446352,0.,0.,-0.00071720,0.,0.,-0.00026370,0.,0.,0.00
 002648,0.,0.,0.00005742,0.,0.,0.00008972,0.,0.,-0.00004148,0.,0.,0.002
 27079,0.,0.,0.00758873,0.,0.,0.00314933,0.,0.,-0.00131821,0.,0.,0.0224
 2330,-0.00006470,-0.00019590,0.,-0.00053706,-0.00015045,0.,0.00021271,
 0.00174200,0.,-0.00004963,0.00016278,0.,-0.00001261,0.00002672,0.,0.00
 004353,-0.00006257,0.,-0.00000205,0.00008391,0.,-0.00511941,-0.0021182
 0,0.,-0.00099043,-0.00064262,0.,0.00023806,-0.00000887,0.,0.00003256,0
 .00003519,0.,-0.00006768,0.00000818,0.,-0.00001241,0.00000090,0.,-0.00
 003782,-0.00001029,0.,-0.00003147,-0.00004229,0.,-0.01141172,0.0296100
 5,0.,-0.00128102,-0.00298641,0.,-0.00005490,0.00003302,0.,0.00006454,0
 .00002566,0.,-0.00002662,-0.00002156,0.,-0.00000173,-0.00000498,0.,0.0
 0000488,0.00000946,0.,0.00000337,0.00000821,0.,0.00004095,0.00002718,0
 .,-0.12780062,0.11895042,0.,0.01246041,-0.01511029,0.,0.00104522,-0.00
 014664,0.,0.00043884,-0.00086531,0.,0.13209524,-0.00000459,-0.00008856
 ,0.,0.00002147,0.00007686,0.,-0.00008214,0.00004975,0.,-0.00002423,0.0
 0001323,0.,0.00004054,0.00001475,0.,0.00001025,-0.00003860,0.,0.000067
 32,-0.00000745,0.,-0.00067963,0.00145647,0.,-0.00093316,0.00029151,0.,
 0.00011167,0.00006967,0.,0.00001680,0.00001428,0.,0.00000596,-0.000006
 72,0.,0.00001182,0.00000128,0.,0.00001029,0.00001465,0.,-0.00002548,-0
 .00003068,0.,-0.00201237,0.00359390,0.,-0.00438781,-0.00296324,0.,-0.0
 0006666,-0.00007520,0.,0.00005114,0.00003500,0.,-0.00000738,-0.0000275
 1,0.,0.00001430,-0.00000288,0.,0.00001564,-0.00000962,0.,-0.00000271,-
 0.00001450,0.,0.00006544,0.00007142,0.,0.11936033,-0.27188099,0.,0.016
 57125,-0.01865430,0.,0.00024719,0.00106448,0.,0.00081989,-0.00111270,0
 .,-0.12894265,0.28714345,0.,0.,0.00028210,0.,0.,-0.00059212,0.,0.,0.00
 045960,0.,0.,0.00001962,0.,0.,0.00002371,0.,0.,-0.00004744,0.,0.,0.000
 17229,0.,0.,0.00794398,0.,0.,-0.00022405,0.,0.,-0.00121331,0.,0.,0.000
 01311,0.,0.,-0.00002360,0.,0.,0.00000355,0.,0.,0.00000596,0.,0.,-0.000
 04148,0.,0.,0.00192005,0.,0.,0.00608812,0.,0.,0.00012907,0.,0.,-0.0001
 1436,0.,0.,0.00002152,0.,0.,0.00000743,0.,0.,0.00001572,0.,0.,0.000003
 55,0.,0.,0.00008972,0.,0.,-0.03478197,0.,0.,0.00204741,0.,0.,-0.004282
 18,0.,0.,0.00024479,0.,0.,0.02501305,-0.00002077,0.00031955,0.,0.00000
 422,0.00003520,0.,0.00006725,0.00001305,0.,-0.00000366,-0.00000411,0.,
 -0.00001476,-0.00000053,0.,0.00000913,0.00001915,0.,-0.00005556,-0.000
 06704,0.,0.00065336,0.00001588,0.,0.00102399,0.00286727,0.,-0.00062825
 ,-0.00056767,0.,-0.00006248,-0.00003164,0.,-0.00000662,0.00001147,0.,-
 0.00001687,0.00000309,0.,-0.00001241,-0.00001182,0.,0.00002370,0.00005
 548,0.,0.00065045,-0.00327268,0.,-0.01210765,-0.00241417,0.,-0.0000715
 8,0.00002717,0.,0.00000459,-0.00001223,0.,-0.00002121,0.00003557,0.,-0
 .00002808,0.00002882,0.,-0.00000765,0.00001457,0.,0.00000153,0.0000330
 1,0.,-0.00000153,-0.00000820,0.,-0.01150824,0.00273294,0.,-0.33905248,
 -0.00260599,0.,-0.00070514,0.00015940,0.,0.00101612,0.00023039,0.,0.00
 082144,-0.00027247,0.,0.36004901,0.00014763,-0.00043944,0.,-0.00015611
 ,-0.00015748,0.,-0.00010749,0.00024047,0.,0.00001428,0.00005050,0.,-0.
 00001470,-0.00003938,0.,-0.00000633,0.00009040,0.,0.00003264,-0.000074
 55,0.,0.00030642,-0.00135228,0.,0.00142869,-0.00468694,0.,0.00125647,0
 .00089071,0.,0.00015536,0.00002608,0.,-0.00000780,0.00000202,0.,-0.000
 00309,0.00001213,0.,-0.00000090,0.00000128,0.,0.00001722,0.00008867,0.
 ,-0.00187128,-0.00489471,0.,0.02920826,0.00428983,0.,0.00004376,0.0000
 6209,0.,-0.00008505,0.00000034,0.,0.00002175,0.00002335,0.,0.00003104,
 -0.00004632,0.,0.00000365,-0.00000348,0.,0.00001242,-0.00002470,0.,-0.
 00002500,-0.00006062,0.,-0.02894860,0.00531434,0.,-0.00301590,-0.06062
 913,0.,-0.00152579,0.00003129,0.,-0.00016343,0.00109357,0.,0.00058548,
 0.00100216,0.,0.00266652,0.05918968,0.,0.,-0.00059212,0.,0.,0.00028210
 ,0.,0.,-0.00121331,0.,0.,0.00001311,0.,0.,0.00002152,0.,0.,-0.00011436
 ,0.,0.,0.00012907,0.,0.,-0.00022405,0.,0.,0.00794398,0.,0.,0.00045960,
 0.,0.,0.00001962,0.,0.,0.00000743,0.,0.,0.00001572,0.,0.,0.00000355,0.
 ,0.,0.00008972,0.,0.,0.00608812,0.,0.,0.00192005,0.,0.,0.00017229,0.,0
 .,-0.00004744,0.,0.,0.00002371,0.,0.,-0.00002360,0.,0.,0.00000355,0.,0
 .,0.00000596,0.,0.,-0.00004148,0.,0.,0.00204741,0.,0.,-0.03478197,0.,0
 .,0.00024479,0.,0.,-0.00428218,0.,0.,-0.00318383,0.,0.,0.02501305\\0.0
 0010767,-0.00004273,0.,0.00009084,-0.00007188,0.,-0.00001683,0.0001146
 1,0.,-0.00007752,-0.00001486,0.,-0.00001298,0.00013696,0.,0.00011212,-
 0.00007972,0.,-0.00005162,-0.00005971,0.,0.00001683,0.00011461,0.,-0.0
 0009084,-0.00007188,0.,-0.00010767,-0.00004273,0.,-0.00002589,0.000074
 56,0.,0.00001207,0.00005303,0.,-0.00000831,-0.00000803,0.,-0.00001111,
 -0.00000318,0.,0.00005196,-0.00001606,0.,0.00005162,-0.00005971,0.,0.0
 0007752,-0.00001486,0.,0.00002589,0.00007456,0.,0.00012510,-0.00005724
 ,0.,-0.00012510,-0.00005724,0.,-0.00003988,-0.00003697,0.,0.00000280,0
 .00001122,0.,-0.00000280,0.00001122,0.,0.00003988,-0.00003697,0.,-0.00
 011212,-0.00007972,0.,0.00001298,0.00013696,0.,-0.00005196,-0.00001606
 ,0.,-0.00001207,0.00005303,0.,0.00001111,-0.00000318,0.,0.00000831,-0.
 00000803,0.\\\@


 A MAN SHOULD NEVER BE ASHAMED TO OWN HE HAS BEEN IN THE WRONG
 WHICH IS BUT SAYING IN OTHER WORDS,
 THAT HE IS WISER TODAY THAN HE WAS YESTERDAY.

                          -- JONATHAN SWIFT
 Job cpu time:       0 days  0 hours 10 minutes  3.2 seconds.
 Elapsed time:       0 days  0 hours  1 minutes 15.8 seconds.
 File lengths (MBytes):  RWF=    104 Int=      0 D2E=      0 Chk=      9 Scr=      1
 Normal termination of Gaussian 16 at Fri Mar 17 10:28:40 2023.
