 Entering Gaussian System, Link 0=g16
 Initial command:
 /Applications/g16/l1.exe "/Applications/g16/Scratch/Gau-44350.inp" -scrdir="/Applications/g16/Scratch/"
 Entering Link 1 = /Applications/g16/l1.exe PID=     44351.
  
 Copyright (c) 1988-2017, Gaussian, Inc.  All Rights Reserved.
  
 This is part of the Gaussian(R) 16 program.  It is based on
 the Gaussian(R) 09 system (copyright 2009, Gaussian, Inc.),
 the Gaussian(R) 03 system (copyright 2003, Gaussian, Inc.),
 the Gaussian(R) 98 system (copyright 1998, Gaussian, Inc.),
 the Gaussian(R) 94 system (copyright 1995, Gaussian, Inc.),
 the Gaussian 92(TM) system (copyright 1992, Gaussian, Inc.),
 the Gaussian 90(TM) system (copyright 1990, Gaussian, Inc.),
 the Gaussian 88(TM) system (copyright 1988, Gaussian, Inc.),
 the Gaussian 86(TM) system (copyright 1986, Carnegie Mellon
 University), and the Gaussian 82(TM) system (copyright 1983,
 Carnegie Mellon University). Gaussian is a federally registered
 trademark of Gaussian, Inc.
  
 This software contains proprietary and confidential information,
 including trade secrets, belonging to Gaussian, Inc.
  
 This software is provided under written license and may be
 used, copied, transmitted, or stored only in accord with that
 written license.
  
 The following legend is applicable only to US Government
 contracts under FAR:
  
                    RESTRICTED RIGHTS LEGEND
  
 Use, reproduction and disclosure by the US Government is
 subject to restrictions as set forth in subparagraphs (a)
 and (c) of the Commercial Computer Software - Restricted
 Rights clause in FAR 52.227-19.
  
 Gaussian, Inc.
 340 Quinnipiac St., Bldg. 40, Wallingford CT 06492
  
  
 ---------------------------------------------------------------
 Warning -- This program may not be used in any manner that
 competes with the business of Gaussian, Inc. or will provide
 assistance to any competitor of Gaussian, Inc.  The licensee
 of this program is prohibited from giving any competitor of
 Gaussian, Inc. access to this program.  By using this program,
 the user acknowledges that Gaussian, Inc. is engaged in the
 business of creating and licensing software in the field of
 computational chemistry and represents and warrants to the
 licensee that it is not a competitor of Gaussian, Inc. and that
 it will not use this program in any manner prohibited above.
 ---------------------------------------------------------------
  

 Cite this work as:
 Gaussian 16, Revision B.01,
 M. J. Frisch, G. W. Trucks, H. B. Schlegel, G. E. Scuseria, 
 M. A. Robb, J. R. Cheeseman, G. Scalmani, V. Barone, 
 G. A. Petersson, H. Nakatsuji, X. Li, M. Caricato, A. V. Marenich, 
 J. Bloino, B. G. Janesko, R. Gomperts, B. Mennucci, H. P. Hratchian, 
 J. V. Ortiz, A. F. Izmaylov, J. L. Sonnenberg, D. Williams-Young, 
 F. Ding, F. Lipparini, F. Egidi, J. Goings, B. Peng, A. Petrone, 
 T. Henderson, D. Ranasinghe, V. G. Zakrzewski, J. Gao, N. Rega, 
 G. Zheng, W. Liang, M. Hada, M. Ehara, K. Toyota, R. Fukuda, 
 J. Hasegawa, M. Ishida, T. Nakajima, Y. Honda, O. Kitao, H. Nakai, 
 T. Vreven, K. Throssell, J. A. Montgomery, Jr., J. E. Peralta, 
 F. Ogliaro, M. J. Bearpark, J. J. Heyd, E. N. Brothers, K. N. Kudin, 
 V. N. Staroverov, T. A. Keith, R. Kobayashi, J. Normand, 
 K. Raghavachari, A. P. Rendell, J. C. Burant, S. S. Iyengar, 
 J. Tomasi, M. Cossi, J. M. Millam, M. Klene, C. Adamo, R. Cammi, 
 J. W. Ochterski, R. L. Martin, K. Morokuma, O. Farkas, 
 J. B. Foresman, and D. J. Fox, Gaussian, Inc., Wallingford CT, 2016.
 
 ******************************************
 Gaussian 16:  EM64M-G16RevB.01 20-Dec-2017
                 6-Jun-2021 
 ******************************************
 %nprocshared=6
 Will use up to    6 processors via shared memory.
 %mem=10GB
 %chk=methylazulene.chk
 --------------------------------------------------------
 #p nmr=giao rb3lyp/6-31g(d) geom=connectivity guess=read
 --------------------------------------------------------
 1/38=1,57=2,172=1/1;
 2/12=2,17=6,18=5,40=1/2;
 3/5=1,6=6,7=1,11=2,25=1,30=1,74=-5,116=1/1,2,3,8;
 4/5=1/1;
 5/5=2,38=6/2;
 8/6=1,10=90,11=11/1;
 10/13=100,45=16/2;
 6/7=2,8=2,9=2,10=2,28=1/1;
 99/9=1/99;
 Leave Link    1 at Sun Jun  6 18:19:42 2021, MaxMem=  1342177280 cpu:               1.0 elap:               0.2
 (Enter /Applications/g16/l101.exe)
 ---------------------------------------------------------------
 /Users/tetsu/Desktop/methylazulene_3DICSS//Created_by_ICSSgen3D
 ---------------------------------------------------------------
 Symbolic Z-matrix:
 Charge =  0 Multiplicity = 1
 C                    -2.68122  -0.69594   0.00003 
 H                    -3.70025  -1.07886   0.00004 
 C                    -2.57389   0.69577   0.00012 
 H                    -3.51455   1.24088   0.0002 
 C                    -1.42188   1.47672   0.00012 
 H                    -1.57995   2.55485   0.00014 
 C                    -0.09126   1.07521   0.00002 
 C                     1.02154   1.92054  -0.00007 
 H                     0.98652   3.00303  -0.00011 
 C                     2.17511   1.1262   -0.00016 
 H                     3.1925    1.505    -0.00026 
 C                     1.8423   -0.23366   0.00008 
 C                     0.43671  -0.32326  -0.00015 
 C                    -1.68554  -1.66885  -0.00009 
 H                    -2.03235  -2.69928  -0.0001 
 C                    -0.30028  -1.49721  -0.00018 
 H                     0.28392  -2.41707  -0.0002 
 C                     2.80571  -1.38304   0.00022 
 H                     2.68121  -2.02129   0.88362 
 H                     2.68123  -2.02145  -0.88307 
 H                     3.83788  -1.02067   0.0002 
 Bq                    7.25     -2.75      4.5 
 Bq                    7.25     -2.75      4.75 
 Bq                    7.25     -2.75      5. 
 Bq                    7.25     -2.75      5.25 
 Bq                    7.25     -2.75      5.5 
 Bq                    7.25     -2.75      5.75 
 Bq                    7.25     -2.75      6. 
 Bq                    7.25     -2.5      -6. 
 Bq                    7.25     -2.5      -5.75 
 Bq                    7.25     -2.5      -5.5 
 Bq                    7.25     -2.5      -5.25 
 Bq                    7.25     -2.5      -5. 
 Bq                    7.25     -2.5      -4.75 
 Bq                    7.25     -2.5      -4.5 
 Bq                    7.25     -2.5      -4.25 
 Bq                    7.25     -2.5      -4. 
 Bq                    7.25     -2.5      -3.75 
 Bq                    7.25     -2.5      -3.5 
 Bq                    7.25     -2.5      -3.25 
 Bq                    7.25     -2.5      -3. 
 Bq                    7.25     -2.5      -2.75 
 Bq                    7.25     -2.5      -2.5 
 Bq                    7.25     -2.5      -2.25 
 Bq                    7.25     -2.5      -2. 
 Bq                    7.25     -2.5      -1.75 
 Bq                    7.25     -2.5      -1.5 
 Bq                    7.25     -2.5      -1.25 
 Bq                    7.25     -2.5      -1. 
 Bq                    7.25     -2.5      -0.75 
 Bq                    7.25     -2.5      -0.5 
 Bq                    7.25     -2.5      -0.25 
 Bq                    7.25     -2.5       0. 
 Bq                    7.25     -2.5       0.25 
 Bq                    7.25     -2.5       0.5 
 Bq                    7.25     -2.5       0.75 
 Bq                    7.25     -2.5       1. 
 Bq                    7.25     -2.5       1.25 
 Bq                    7.25     -2.5       1.5 
 Bq                    7.25     -2.5       1.75 
 Bq                    7.25     -2.5       2. 
 Bq                    7.25     -2.5       2.25 
 Bq                    7.25     -2.5       2.5 
 Bq                    7.25     -2.5       2.75 
 Bq                    7.25     -2.5       3. 
 Bq                    7.25     -2.5       3.25 
 Bq                    7.25     -2.5       3.5 
 Bq                    7.25     -2.5       3.75 
 Bq                    7.25     -2.5       4. 
 Bq                    7.25     -2.5       4.25 
 Bq                    7.25     -2.5       4.5 
 Bq                    7.25     -2.5       4.75 
 Bq                    7.25     -2.5       5. 
 Bq                    7.25     -2.5       5.25 
 Bq                    7.25     -2.5       5.5 
 Bq                    7.25     -2.5       5.75 
 Bq                    7.25     -2.5       6. 
 Bq                    7.25     -2.25     -6. 
 Bq                    7.25     -2.25     -5.75 
 Bq                    7.25     -2.25     -5.5 
 Bq                    7.25     -2.25     -5.25 
 Bq                    7.25     -2.25     -5. 
 Bq                    7.25     -2.25     -4.75 
 Bq                    7.25     -2.25     -4.5 
 Bq                    7.25     -2.25     -4.25 
 Bq                    7.25     -2.25     -4. 
 Bq                    7.25     -2.25     -3.75 
 Bq                    7.25     -2.25     -3.5 
 Bq                    7.25     -2.25     -3.25 
 Bq                    7.25     -2.25     -3. 
 Bq                    7.25     -2.25     -2.75 
 Bq                    7.25     -2.25     -2.5 
 Bq                    7.25     -2.25     -2.25 
 Bq                    7.25     -2.25     -2. 
 Bq                    7.25     -2.25     -1.75 
 Bq                    7.25     -2.25     -1.5 
 Bq                    7.25     -2.25     -1.25 
 Bq                    7.25     -2.25     -1. 
 Bq                    7.25     -2.25     -0.75 
 Bq                    7.25     -2.25     -0.5 
 Bq                    7.25     -2.25     -0.25 
 Bq                    7.25     -2.25      0. 
 Bq                    7.25     -2.25      0.25 
 Bq                    7.25     -2.25      0.5 
 Bq                    7.25     -2.25      0.75 
 Bq                    7.25     -2.25      1. 
 Bq                    7.25     -2.25      1.25 
 Bq                    7.25     -2.25      1.5 
 Bq                    7.25     -2.25      1.75 
 Bq                    7.25     -2.25      2. 
 Bq                    7.25     -2.25      2.25 
 Bq                    7.25     -2.25      2.5 
 Bq                    7.25     -2.25      2.75 
 Bq                    7.25     -2.25      3. 
 Bq                    7.25     -2.25      3.25 
 Bq                    7.25     -2.25      3.5 
 Bq                    7.25     -2.25      3.75 
 Bq                    7.25     -2.25      4. 
 Bq                    7.25     -2.25      4.25 
 Bq                    7.25     -2.25      4.5 
 Bq                    7.25     -2.25      4.75 
 Bq                    7.25     -2.25      5. 
 Bq                    7.25     -2.25      5.25 
 Bq                    7.25     -2.25      5.5 
 Bq                    7.25     -2.25      5.75 
 Bq                    7.25     -2.25      6. 
 Bq                    7.25     -2.       -6. 
 Bq                    7.25     -2.       -5.75 
 Bq                    7.25     -2.       -5.5 
 Bq                    7.25     -2.       -5.25 
 Bq                    7.25     -2.       -5. 
 Bq                    7.25     -2.       -4.75 
 Bq                    7.25     -2.       -4.5 
 Bq                    7.25     -2.       -4.25 
 Bq                    7.25     -2.       -4. 
 Bq                    7.25     -2.       -3.75 
 Bq                    7.25     -2.       -3.5 
 Bq                    7.25     -2.       -3.25 
 Bq                    7.25     -2.       -3. 
 Bq                    7.25     -2.       -2.75 
 Bq                    7.25     -2.       -2.5 
 Bq                    7.25     -2.       -2.25 
 Bq                    7.25     -2.       -2. 
 Bq                    7.25     -2.       -1.75 
 Bq                    7.25     -2.       -1.5 
 Bq                    7.25     -2.       -1.25 
 Bq                    7.25     -2.       -1. 
 Bq                    7.25     -2.       -0.75 
 Bq                    7.25     -2.       -0.5 
 Bq                    7.25     -2.       -0.25 
 Bq                    7.25     -2.        0. 
 Bq                    7.25     -2.        0.25 
 Bq                    7.25     -2.        0.5 
 Bq                    7.25     -2.        0.75 
 Bq                    7.25     -2.        1. 
 Bq                    7.25     -2.        1.25 
 Bq                    7.25     -2.        1.5 
 Bq                    7.25     -2.        1.75 
 Bq                    7.25     -2.        2. 
 Bq                    7.25     -2.        2.25 
 Bq                    7.25     -2.        2.5 
 Bq                    7.25     -2.        2.75 
 Bq                    7.25     -2.        3. 
 Bq                    7.25     -2.        3.25 
 Bq                    7.25     -2.        3.5 
 Bq                    7.25     -2.        3.75 
 Bq                    7.25     -2.        4. 
 Bq                    7.25     -2.        4.25 
 Bq                    7.25     -2.        4.5 
 Bq                    7.25     -2.        4.75 
 Bq                    7.25     -2.        5. 
 Bq                    7.25     -2.        5.25 
 Bq                    7.25     -2.        5.5 
 Bq                    7.25     -2.        5.75 
 Bq                    7.25     -2.        6. 
 Bq                    7.25     -1.75     -6. 
 Bq                    7.25     -1.75     -5.75 
 Bq                    7.25     -1.75     -5.5 
 Bq                    7.25     -1.75     -5.25 
 Bq                    7.25     -1.75     -5. 
 Bq                    7.25     -1.75     -4.75 
 Bq                    7.25     -1.75     -4.5 
 Bq                    7.25     -1.75     -4.25 
 Bq                    7.25     -1.75     -4. 
 Bq                    7.25     -1.75     -3.75 
 Bq                    7.25     -1.75     -3.5 
 Bq                    7.25     -1.75     -3.25 
 Bq                    7.25     -1.75     -3. 
 Bq                    7.25     -1.75     -2.75 
 Bq                    7.25     -1.75     -2.5 
 Bq                    7.25     -1.75     -2.25 
 Bq                    7.25     -1.75     -2. 
 Bq                    7.25     -1.75     -1.75 
 Bq                    7.25     -1.75     -1.5 
 Bq                    7.25     -1.75     -1.25 
 Bq                    7.25     -1.75     -1. 
 Bq                    7.25     -1.75     -0.75 
 Bq                    7.25     -1.75     -0.5 
 Bq                    7.25     -1.75     -0.25 
 Bq                    7.25     -1.75      0. 
 Bq                    7.25     -1.75      0.25 
 Bq                    7.25     -1.75      0.5 
 Bq                    7.25     -1.75      0.75 
 Bq                    7.25     -1.75      1. 
 Bq                    7.25     -1.75      1.25 
 Bq                    7.25     -1.75      1.5 
 Bq                    7.25     -1.75      1.75 
 Bq                    7.25     -1.75      2. 
 Bq                    7.25     -1.75      2.25 
 Bq                    7.25     -1.75      2.5 
 Bq                    7.25     -1.75      2.75 
 Bq                    7.25     -1.75      3. 
 Bq                    7.25     -1.75      3.25 
 Bq                    7.25     -1.75      3.5 
 Bq                    7.25     -1.75      3.75 
 Bq                    7.25     -1.75      4. 
 Bq                    7.25     -1.75      4.25 
 Bq                    7.25     -1.75      4.5 
 Bq                    7.25     -1.75      4.75 
 Bq                    7.25     -1.75      5. 
 Bq                    7.25     -1.75      5.25 
 Bq                    7.25     -1.75      5.5 
 Bq                    7.25     -1.75      5.75 
 Bq                    7.25     -1.75      6. 
 Bq                    7.25     -1.5      -6. 
 Bq                    7.25     -1.5      -5.75 
 Bq                    7.25     -1.5      -5.5 
 Bq                    7.25     -1.5      -5.25 
 Bq                    7.25     -1.5      -5. 
 Bq                    7.25     -1.5      -4.75 
 Bq                    7.25     -1.5      -4.5 
 Bq                    7.25     -1.5      -4.25 
 Bq                    7.25     -1.5      -4. 
 Bq                    7.25     -1.5      -3.75 
 Bq                    7.25     -1.5      -3.5 
 Bq                    7.25     -1.5      -3.25 
 Bq                    7.25     -1.5      -3. 
 Bq                    7.25     -1.5      -2.75 
 Bq                    7.25     -1.5      -2.5 
 Bq                    7.25     -1.5      -2.25 
 Bq                    7.25     -1.5      -2. 
 Bq                    7.25     -1.5      -1.75 
 Bq                    7.25     -1.5      -1.5 
 Bq                    7.25     -1.5      -1.25 
 Bq                    7.25     -1.5      -1. 
 Bq                    7.25     -1.5      -0.75 
 Bq                    7.25     -1.5      -0.5 
 Bq                    7.25     -1.5      -0.25 
 Bq                    7.25     -1.5       0. 
 Bq                    7.25     -1.5       0.25 
 Bq                    7.25     -1.5       0.5 
 Bq                    7.25     -1.5       0.75 
 Bq                    7.25     -1.5       1. 
 Bq                    7.25     -1.5       1.25 
 Bq                    7.25     -1.5       1.5 
 Bq                    7.25     -1.5       1.75 
 Bq                    7.25     -1.5       2. 
 Bq                    7.25     -1.5       2.25 
 Bq                    7.25     -1.5       2.5 
 Bq                    7.25     -1.5       2.75 
 Bq                    7.25     -1.5       3. 
 Bq                    7.25     -1.5       3.25 
 Bq                    7.25     -1.5       3.5 
 Bq                    7.25     -1.5       3.75 
 Bq                    7.25     -1.5       4. 
 Bq                    7.25     -1.5       4.25 
 Bq                    7.25     -1.5       4.5 
 Bq                    7.25     -1.5       4.75 
 Bq                    7.25     -1.5       5. 
 Bq                    7.25     -1.5       5.25 
 Bq                    7.25     -1.5       5.5 
 Bq                    7.25     -1.5       5.75 
 Bq                    7.25     -1.5       6. 
 Bq                    7.25     -1.25     -6. 
 Bq                    7.25     -1.25     -5.75 
 Bq                    7.25     -1.25     -5.5 
 Bq                    7.25     -1.25     -5.25 
 Bq                    7.25     -1.25     -5. 
 Bq                    7.25     -1.25     -4.75 
 Bq                    7.25     -1.25     -4.5 
 Bq                    7.25     -1.25     -4.25 
 Bq                    7.25     -1.25     -4. 
 Bq                    7.25     -1.25     -3.75 
 Bq                    7.25     -1.25     -3.5 
 Bq                    7.25     -1.25     -3.25 
 Bq                    7.25     -1.25     -3. 
 Bq                    7.25     -1.25     -2.75 
 Bq                    7.25     -1.25     -2.5 
 Bq                    7.25     -1.25     -2.25 
 Bq                    7.25     -1.25     -2. 
 Bq                    7.25     -1.25     -1.75 
 Bq                    7.25     -1.25     -1.5 
 Bq                    7.25     -1.25     -1.25 
 Bq                    7.25     -1.25     -1. 
 Bq                    7.25     -1.25     -0.75 
 Bq                    7.25     -1.25     -0.5 
 Bq                    7.25     -1.25     -0.25 
 Bq                    7.25     -1.25      0. 
 Bq                    7.25     -1.25      0.25 
 Bq                    7.25     -1.25      0.5 
 Bq                    7.25     -1.25      0.75 
 Bq                    7.25     -1.25      1. 
 Bq                    7.25     -1.25      1.25 
 Bq                    7.25     -1.25      1.5 
 Bq                    7.25     -1.25      1.75 
 Bq                    7.25     -1.25      2. 
 Bq                    7.25     -1.25      2.25 
 Bq                    7.25     -1.25      2.5 
 Bq                    7.25     -1.25      2.75 
 Bq                    7.25     -1.25      3. 
 Bq                    7.25     -1.25      3.25 
 Bq                    7.25     -1.25      3.5 
 Bq                    7.25     -1.25      3.75 
 Bq                    7.25     -1.25      4. 
 Bq                    7.25     -1.25      4.25 
 Bq                    7.25     -1.25      4.5 
 Bq                    7.25     -1.25      4.75 
 Bq                    7.25     -1.25      5. 
 Bq                    7.25     -1.25      5.25 
 Bq                    7.25     -1.25      5.5 
 Bq                    7.25     -1.25      5.75 
 Bq                    7.25     -1.25      6. 
 Bq                    7.25     -1.       -6. 
 Bq                    7.25     -1.       -5.75 
 Bq                    7.25     -1.       -5.5 
 Bq                    7.25     -1.       -5.25 
 Bq                    7.25     -1.       -5. 
 Bq                    7.25     -1.       -4.75 
 Bq                    7.25     -1.       -4.5 
 Bq                    7.25     -1.       -4.25 
 Bq                    7.25     -1.       -4. 
 Bq                    7.25     -1.       -3.75 
 Bq                    7.25     -1.       -3.5 
 Bq                    7.25     -1.       -3.25 
 Bq                    7.25     -1.       -3. 
 Bq                    7.25     -1.       -2.75 
 Bq                    7.25     -1.       -2.5 
 Bq                    7.25     -1.       -2.25 
 Bq                    7.25     -1.       -2. 
 Bq                    7.25     -1.       -1.75 
 Bq                    7.25     -1.       -1.5 
 Bq                    7.25     -1.       -1.25 
 Bq                    7.25     -1.       -1. 
 Bq                    7.25     -1.       -0.75 
 Bq                    7.25     -1.       -0.5 
 Bq                    7.25     -1.       -0.25 
 Bq                    7.25     -1.        0. 
 Bq                    7.25     -1.        0.25 
 Bq                    7.25     -1.        0.5 
 Bq                    7.25     -1.        0.75 
 Bq                    7.25     -1.        1. 
 Bq                    7.25     -1.        1.25 
 Bq                    7.25     -1.        1.5 
 Bq                    7.25     -1.        1.75 
 Bq                    7.25     -1.        2. 
 Bq                    7.25     -1.        2.25 
 Bq                    7.25     -1.        2.5 
 Bq                    7.25     -1.        2.75 
 Bq                    7.25     -1.        3. 
 Bq                    7.25     -1.        3.25 
 Bq                    7.25     -1.        3.5 
 Bq                    7.25     -1.        3.75 
 Bq                    7.25     -1.        4. 
 Bq                    7.25     -1.        4.25 
 Bq                    7.25     -1.        4.5 
 Bq                    7.25     -1.        4.75 
 Bq                    7.25     -1.        5. 
 Bq                    7.25     -1.        5.25 
 Bq                    7.25     -1.        5.5 
 Bq                    7.25     -1.        5.75 
 Bq                    7.25     -1.        6. 
 Bq                    7.25     -0.75     -6. 
 Bq                    7.25     -0.75     -5.75 
 Bq                    7.25     -0.75     -5.5 
 Bq                    7.25     -0.75     -5.25 
 Bq                    7.25     -0.75     -5. 
 Bq                    7.25     -0.75     -4.75 
 Bq                    7.25     -0.75     -4.5 
 Bq                    7.25     -0.75     -4.25 
 Bq                    7.25     -0.75     -4. 
 Bq                    7.25     -0.75     -3.75 
 Bq                    7.25     -0.75     -3.5 
 Bq                    7.25     -0.75     -3.25 
 Bq                    7.25     -0.75     -3. 
 Bq                    7.25     -0.75     -2.75 
 Bq                    7.25     -0.75     -2.5 
 Bq                    7.25     -0.75     -2.25 
 Bq                    7.25     -0.75     -2. 
 Bq                    7.25     -0.75     -1.75 
 Bq                    7.25     -0.75     -1.5 
 Bq                    7.25     -0.75     -1.25 
 Bq                    7.25     -0.75     -1. 
 Bq                    7.25     -0.75     -0.75 
 Bq                    7.25     -0.75     -0.5 
 Bq                    7.25     -0.75     -0.25 
 Bq                    7.25     -0.75      0. 
 Bq                    7.25     -0.75      0.25 
 Bq                    7.25     -0.75      0.5 
 Bq                    7.25     -0.75      0.75 
 Bq                    7.25     -0.75      1. 
 Bq                    7.25     -0.75      1.25 
 Bq                    7.25     -0.75      1.5 
 Bq                    7.25     -0.75      1.75 
 Bq                    7.25     -0.75      2. 
 Bq                    7.25     -0.75      2.25 
 Bq                    7.25     -0.75      2.5 
 Bq                    7.25     -0.75      2.75 
 Bq                    7.25     -0.75      3. 
 Bq                    7.25     -0.75      3.25 
 Bq                    7.25     -0.75      3.5 
 Bq                    7.25     -0.75      3.75 
 Bq                    7.25     -0.75      4. 
 Bq                    7.25     -0.75      4.25 
 Bq                    7.25     -0.75      4.5 
 Bq                    7.25     -0.75      4.75 
 Bq                    7.25     -0.75      5. 
 Bq                    7.25     -0.75      5.25 
 Bq                    7.25     -0.75      5.5 
 Bq                    7.25     -0.75      5.75 
 Bq                    7.25     -0.75      6. 
 Bq                    7.25     -0.5      -6. 
 Bq                    7.25     -0.5      -5.75 
 Bq                    7.25     -0.5      -5.5 
 Bq                    7.25     -0.5      -5.25 
 Bq                    7.25     -0.5      -5. 
 Bq                    7.25     -0.5      -4.75 
 Bq                    7.25     -0.5      -4.5 
 Bq                    7.25     -0.5      -4.25 
 Bq                    7.25     -0.5      -4. 
 Bq                    7.25     -0.5      -3.75 
 Bq                    7.25     -0.5      -3.5 
 Bq                    7.25     -0.5      -3.25 
 Bq                    7.25     -0.5      -3. 
 Bq                    7.25     -0.5      -2.75 
 Bq                    7.25     -0.5      -2.5 
 Bq                    7.25     -0.5      -2.25 
 Bq                    7.25     -0.5      -2. 
 Bq                    7.25     -0.5      -1.75 
 Bq                    7.25     -0.5      -1.5 
 Bq                    7.25     -0.5      -1.25 
 Bq                    7.25     -0.5      -1. 
 Bq                    7.25     -0.5      -0.75 
 Bq                    7.25     -0.5      -0.5 
 Bq                    7.25     -0.5      -0.25 
 Bq                    7.25     -0.5       0. 
 Bq                    7.25     -0.5       0.25 
 Bq                    7.25     -0.5       0.5 
 Bq                    7.25     -0.5       0.75 
 Bq                    7.25     -0.5       1. 
 Bq                    7.25     -0.5       1.25 
 Bq                    7.25     -0.5       1.5 
 Bq                    7.25     -0.5       1.75 
 Bq                    7.25     -0.5       2. 
 Bq                    7.25     -0.5       2.25 
 Bq                    7.25     -0.5       2.5 
 Bq                    7.25     -0.5       2.75 
 Bq                    7.25     -0.5       3. 
 Bq                    7.25     -0.5       3.25 
 Bq                    7.25     -0.5       3.5 
 Bq                    7.25     -0.5       3.75 
 Bq                    7.25     -0.5       4. 
 Bq                    7.25     -0.5       4.25 
 Bq                    7.25     -0.5       4.5 
 Bq                    7.25     -0.5       4.75 
 Bq                    7.25     -0.5       5. 
 Bq                    7.25     -0.5       5.25 
 Bq                    7.25     -0.5       5.5 
 Bq                    7.25     -0.5       5.75 
 Bq                    7.25     -0.5       6. 
 Bq                    7.25     -0.25     -6. 
 Bq                    7.25     -0.25     -5.75 
 Bq                    7.25     -0.25     -5.5 
 Bq                    7.25     -0.25     -5.25 
 Bq                    7.25     -0.25     -5. 
 Bq                    7.25     -0.25     -4.75 
 Bq                    7.25     -0.25     -4.5 
 Bq                    7.25     -0.25     -4.25 
 Bq                    7.25     -0.25     -4. 
 Bq                    7.25     -0.25     -3.75 
 Bq                    7.25     -0.25     -3.5 
 Bq                    7.25     -0.25     -3.25 
 Bq                    7.25     -0.25     -3. 
 Bq                    7.25     -0.25     -2.75 
 Bq                    7.25     -0.25     -2.5 
 Bq                    7.25     -0.25     -2.25 
 Bq                    7.25     -0.25     -2. 
 Bq                    7.25     -0.25     -1.75 
 Bq                    7.25     -0.25     -1.5 
 Bq                    7.25     -0.25     -1.25 
 Bq                    7.25     -0.25     -1. 
 Bq                    7.25     -0.25     -0.75 
 Bq                    7.25     -0.25     -0.5 
 Bq                    7.25     -0.25     -0.25 
 Bq                    7.25     -0.25      0. 
 Bq                    7.25     -0.25      0.25 
 Bq                    7.25     -0.25      0.5 
 Bq                    7.25     -0.25      0.75 
 Bq                    7.25     -0.25      1. 
 Bq                    7.25     -0.25      1.25 
 Bq                    7.25     -0.25      1.5 
 Bq                    7.25     -0.25      1.75 
 Bq                    7.25     -0.25      2. 
 Bq                    7.25     -0.25      2.25 
 Bq                    7.25     -0.25      2.5 
 Bq                    7.25     -0.25      2.75 
 Bq                    7.25     -0.25      3. 
 Bq                    7.25     -0.25      3.25 
 Bq                    7.25     -0.25      3.5 
 Bq                    7.25     -0.25      3.75 
 Bq                    7.25     -0.25      4. 
 Bq                    7.25     -0.25      4.25 
 Bq                    7.25     -0.25      4.5 
 Bq                    7.25     -0.25      4.75 
 Bq                    7.25     -0.25      5. 
 Bq                    7.25     -0.25      5.25 
 Bq                    7.25     -0.25      5.5 
 Bq                    7.25     -0.25      5.75 
 Bq                    7.25     -0.25      6. 
 Bq                    7.25      0.       -6. 
 Bq                    7.25      0.       -5.75 
 Bq                    7.25      0.       -5.5 
 Bq                    7.25      0.       -5.25 
 Bq                    7.25      0.       -5. 
 Bq                    7.25      0.       -4.75 
 Bq                    7.25      0.       -4.5 
 Bq                    7.25      0.       -4.25 
 Bq                    7.25      0.       -4. 
 Bq                    7.25      0.       -3.75 
 Bq                    7.25      0.       -3.5 
 Bq                    7.25      0.       -3.25 
 Bq                    7.25      0.       -3. 
 Bq                    7.25      0.       -2.75 
 Bq                    7.25      0.       -2.5 
 Bq                    7.25      0.       -2.25 
 Bq                    7.25      0.       -2. 
 Bq                    7.25      0.       -1.75 
 Bq                    7.25      0.       -1.5 
 Bq                    7.25      0.       -1.25 
 Bq                    7.25      0.       -1. 
 Bq                    7.25      0.       -0.75 
 Bq                    7.25      0.       -0.5 
 Bq                    7.25      0.       -0.25 
 Bq                    7.25      0.        0. 
 Bq                    7.25      0.        0.25 
 Bq                    7.25      0.        0.5 
 Bq                    7.25      0.        0.75 
 Bq                    7.25      0.        1. 
 Bq                    7.25      0.        1.25 
 Bq                    7.25      0.        1.5 
 Bq                    7.25      0.        1.75 
 Bq                    7.25      0.        2. 
 Bq                    7.25      0.        2.25 
 Bq                    7.25      0.        2.5 
 Bq                    7.25      0.        2.75 
 Bq                    7.25      0.        3. 
 Bq                    7.25      0.        3.25 
 Bq                    7.25      0.        3.5 
 Bq                    7.25      0.        3.75 
 Bq                    7.25      0.        4. 
 Bq                    7.25      0.        4.25 
 Bq                    7.25      0.        4.5 
 Bq                    7.25      0.        4.75 
 Bq                    7.25      0.        5. 
 Bq                    7.25      0.        5.25 
 Bq                    7.25      0.        5.5 
 Bq                    7.25      0.        5.75 
 Bq                    7.25      0.        6. 
 Bq                    7.25      0.25     -6. 
 Bq                    7.25      0.25     -5.75 
 Bq                    7.25      0.25     -5.5 
 Bq                    7.25      0.25     -5.25 
 Bq                    7.25      0.25     -5. 
 Bq                    7.25      0.25     -4.75 
 Bq                    7.25      0.25     -4.5 
 Bq                    7.25      0.25     -4.25 
 Bq                    7.25      0.25     -4. 
 Bq                    7.25      0.25     -3.75 
 Bq                    7.25      0.25     -3.5 
 Bq                    7.25      0.25     -3.25 
 Bq                    7.25      0.25     -3. 
 Bq                    7.25      0.25     -2.75 
 Bq                    7.25      0.25     -2.5 
 Bq                    7.25      0.25     -2.25 
 Bq                    7.25      0.25     -2. 
 Bq                    7.25      0.25     -1.75 
 Bq                    7.25      0.25     -1.5 
 Bq                    7.25      0.25     -1.25 
 Bq                    7.25      0.25     -1. 
 Bq                    7.25      0.25     -0.75 
 Bq                    7.25      0.25     -0.5 
 Bq                    7.25      0.25     -0.25 
 Bq                    7.25      0.25      0. 
 Bq                    7.25      0.25      0.25 
 Bq                    7.25      0.25      0.5 
 Bq                    7.25      0.25      0.75 
 Bq                    7.25      0.25      1. 
 Bq                    7.25      0.25      1.25 
 Bq                    7.25      0.25      1.5 
 Bq                    7.25      0.25      1.75 
 Bq                    7.25      0.25      2. 
 Bq                    7.25      0.25      2.25 
 Bq                    7.25      0.25      2.5 
 Bq                    7.25      0.25      2.75 
 Bq                    7.25      0.25      3. 
 Bq                    7.25      0.25      3.25 
 Bq                    7.25      0.25      3.5 
 Bq                    7.25      0.25      3.75 
 Bq                    7.25      0.25      4. 
 Bq                    7.25      0.25      4.25 
 Bq                    7.25      0.25      4.5 
 Bq                    7.25      0.25      4.75 
 Bq                    7.25      0.25      5. 
 Bq                    7.25      0.25      5.25 
 Bq                    7.25      0.25      5.5 
 Bq                    7.25      0.25      5.75 
 Bq                    7.25      0.25      6. 
 Bq                    7.25      0.5      -6. 
 Bq                    7.25      0.5      -5.75 
 Bq                    7.25      0.5      -5.5 
 Bq                    7.25      0.5      -5.25 
 Bq                    7.25      0.5      -5. 
 Bq                    7.25      0.5      -4.75 
 Bq                    7.25      0.5      -4.5 
 Bq                    7.25      0.5      -4.25 
 Bq                    7.25      0.5      -4. 
 Bq                    7.25      0.5      -3.75 
 Bq                    7.25      0.5      -3.5 
 Bq                    7.25      0.5      -3.25 
 Bq                    7.25      0.5      -3. 
 Bq                    7.25      0.5      -2.75 
 Bq                    7.25      0.5      -2.5 
 Bq                    7.25      0.5      -2.25 
 Bq                    7.25      0.5      -2. 
 Bq                    7.25      0.5      -1.75 
 Bq                    7.25      0.5      -1.5 
 Bq                    7.25      0.5      -1.25 
 Bq                    7.25      0.5      -1. 
 Bq                    7.25      0.5      -0.75 
 Bq                    7.25      0.5      -0.5 
 Bq                    7.25      0.5      -0.25 
 Bq                    7.25      0.5       0. 
 Bq                    7.25      0.5       0.25 
 Bq                    7.25      0.5       0.5 
 Bq                    7.25      0.5       0.75 
 Bq                    7.25      0.5       1. 
 Bq                    7.25      0.5       1.25 
 Bq                    7.25      0.5       1.5 
 Bq                    7.25      0.5       1.75 
 Bq                    7.25      0.5       2. 
 Bq                    7.25      0.5       2.25 
 Bq                    7.25      0.5       2.5 
 Bq                    7.25      0.5       2.75 
 Bq                    7.25      0.5       3. 
 Bq                    7.25      0.5       3.25 
 Bq                    7.25      0.5       3.5 
 Bq                    7.25      0.5       3.75 
 Bq                    7.25      0.5       4. 
 Bq                    7.25      0.5       4.25 
 Bq                    7.25      0.5       4.5 
 Bq                    7.25      0.5       4.75 
 Bq                    7.25      0.5       5. 
 Bq                    7.25      0.5       5.25 
 Bq                    7.25      0.5       5.5 
 Bq                    7.25      0.5       5.75 
 Bq                    7.25      0.5       6. 
 Bq                    7.25      0.75     -6. 
 Bq                    7.25      0.75     -5.75 
 Bq                    7.25      0.75     -5.5 
 Bq                    7.25      0.75     -5.25 
 Bq                    7.25      0.75     -5. 
 Bq                    7.25      0.75     -4.75 
 Bq                    7.25      0.75     -4.5 
 Bq                    7.25      0.75     -4.25 
 Bq                    7.25      0.75     -4. 
 Bq                    7.25      0.75     -3.75 
 Bq                    7.25      0.75     -3.5 
 Bq                    7.25      0.75     -3.25 
 Bq                    7.25      0.75     -3. 
 Bq                    7.25      0.75     -2.75 
 Bq                    7.25      0.75     -2.5 
 Bq                    7.25      0.75     -2.25 
 Bq                    7.25      0.75     -2. 
 Bq                    7.25      0.75     -1.75 
 Bq                    7.25      0.75     -1.5 
 Bq                    7.25      0.75     -1.25 
 Bq                    7.25      0.75     -1. 
 Bq                    7.25      0.75     -0.75 
 Bq                    7.25      0.75     -0.5 
 Bq                    7.25      0.75     -0.25 
 Bq                    7.25      0.75      0. 
 Bq                    7.25      0.75      0.25 
 Bq                    7.25      0.75      0.5 
 Bq                    7.25      0.75      0.75 
 Bq                    7.25      0.75      1. 
 Bq                    7.25      0.75      1.25 
 Bq                    7.25      0.75      1.5 
 Bq                    7.25      0.75      1.75 
 Bq                    7.25      0.75      2. 
 Bq                    7.25      0.75      2.25 
 Bq                    7.25      0.75      2.5 
 Bq                    7.25      0.75      2.75 
 Bq                    7.25      0.75      3. 
 Bq                    7.25      0.75      3.25 
 Bq                    7.25      0.75      3.5 
 Bq                    7.25      0.75      3.75 
 Bq                    7.25      0.75      4. 
 Bq                    7.25      0.75      4.25 
 Bq                    7.25      0.75      4.5 
 Bq                    7.25      0.75      4.75 
 Bq                    7.25      0.75      5. 
 Bq                    7.25      0.75      5.25 
 Bq                    7.25      0.75      5.5 
 Bq                    7.25      0.75      5.75 
 Bq                    7.25      0.75      6. 
 Bq                    7.25      1.       -6. 
 Bq                    7.25      1.       -5.75 
 Bq                    7.25      1.       -5.5 
 Bq                    7.25      1.       -5.25 
 Bq                    7.25      1.       -5. 
 Bq                    7.25      1.       -4.75 
 Bq                    7.25      1.       -4.5 
 Bq                    7.25      1.       -4.25 
 Bq                    7.25      1.       -4. 
 Bq                    7.25      1.       -3.75 
 Bq                    7.25      1.       -3.5 
 Bq                    7.25      1.       -3.25 
 Bq                    7.25      1.       -3. 
 Bq                    7.25      1.       -2.75 
 Bq                    7.25      1.       -2.5 
 Bq                    7.25      1.       -2.25 
 Bq                    7.25      1.       -2. 
 Bq                    7.25      1.       -1.75 
 Bq                    7.25      1.       -1.5 
 Bq                    7.25      1.       -1.25 
 Bq                    7.25      1.       -1. 
 Bq                    7.25      1.       -0.75 
 Bq                    7.25      1.       -0.5 
 Bq                    7.25      1.       -0.25 
 Bq                    7.25      1.        0. 
 Bq                    7.25      1.        0.25 
 Bq                    7.25      1.        0.5 
 Bq                    7.25      1.        0.75 
 Bq                    7.25      1.        1. 
 Bq                    7.25      1.        1.25 
 Bq                    7.25      1.        1.5 
 Bq                    7.25      1.        1.75 
 Bq                    7.25      1.        2. 
 Bq                    7.25      1.        2.25 
 Bq                    7.25      1.        2.5 
 Bq                    7.25      1.        2.75 
 Bq                    7.25      1.        3. 
 Bq                    7.25      1.        3.25 
 Bq                    7.25      1.        3.5 
 Bq                    7.25      1.        3.75 
 Bq                    7.25      1.        4. 
 Bq                    7.25      1.        4.25 
 Bq                    7.25      1.        4.5 
 Bq                    7.25      1.        4.75 
 Bq                    7.25      1.        5. 
 Bq                    7.25      1.        5.25 
 Bq                    7.25      1.        5.5 
 Bq                    7.25      1.        5.75 
 Bq                    7.25      1.        6. 
 Bq                    7.25      1.25     -6. 
 Bq                    7.25      1.25     -5.75 
 Bq                    7.25      1.25     -5.5 
 Bq                    7.25      1.25     -5.25 
 Bq                    7.25      1.25     -5. 
 Bq                    7.25      1.25     -4.75 
 Bq                    7.25      1.25     -4.5 
 Bq                    7.25      1.25     -4.25 
 Bq                    7.25      1.25     -4. 
 Bq                    7.25      1.25     -3.75 
 Bq                    7.25      1.25     -3.5 
 Bq                    7.25      1.25     -3.25 
 Bq                    7.25      1.25     -3. 
 Bq                    7.25      1.25     -2.75 
 Bq                    7.25      1.25     -2.5 
 Bq                    7.25      1.25     -2.25 
 Bq                    7.25      1.25     -2. 
 Bq                    7.25      1.25     -1.75 
 Bq                    7.25      1.25     -1.5 
 Bq                    7.25      1.25     -1.25 
 Bq                    7.25      1.25     -1. 
 Bq                    7.25      1.25     -0.75 
 Bq                    7.25      1.25     -0.5 
 Bq                    7.25      1.25     -0.25 
 Bq                    7.25      1.25      0. 
 Bq                    7.25      1.25      0.25 
 Bq                    7.25      1.25      0.5 
 Bq                    7.25      1.25      0.75 
 Bq                    7.25      1.25      1. 
 Bq                    7.25      1.25      1.25 
 Bq                    7.25      1.25      1.5 
 Bq                    7.25      1.25      1.75 
 Bq                    7.25      1.25      2. 
 Bq                    7.25      1.25      2.25 
 Bq                    7.25      1.25      2.5 
 Bq                    7.25      1.25      2.75 
 Bq                    7.25      1.25      3. 
 Bq                    7.25      1.25      3.25 
 Bq                    7.25      1.25      3.5 
 Bq                    7.25      1.25      3.75 
 Bq                    7.25      1.25      4. 
 Bq                    7.25      1.25      4.25 
 Bq                    7.25      1.25      4.5 
 Bq                    7.25      1.25      4.75 
 Bq                    7.25      1.25      5. 
 Bq                    7.25      1.25      5.25 
 Bq                    7.25      1.25      5.5 
 Bq                    7.25      1.25      5.75 
 Bq                    7.25      1.25      6. 
 Bq                    7.25      1.5      -6. 
 Bq                    7.25      1.5      -5.75 
 Bq                    7.25      1.5      -5.5 
 Bq                    7.25      1.5      -5.25 
 Bq                    7.25      1.5      -5. 
 Bq                    7.25      1.5      -4.75 
 Bq                    7.25      1.5      -4.5 
 Bq                    7.25      1.5      -4.25 
 Bq                    7.25      1.5      -4. 
 Bq                    7.25      1.5      -3.75 
 Bq                    7.25      1.5      -3.5 
 Bq                    7.25      1.5      -3.25 
 Bq                    7.25      1.5      -3. 
 Bq                    7.25      1.5      -2.75 
 Bq                    7.25      1.5      -2.5 
 Bq                    7.25      1.5      -2.25 
 Bq                    7.25      1.5      -2. 
 Bq                    7.25      1.5      -1.75 
 Bq                    7.25      1.5      -1.5 
 Bq                    7.25      1.5      -1.25 
 Bq                    7.25      1.5      -1. 
 Bq                    7.25      1.5      -0.75 
 Bq                    7.25      1.5      -0.5 
 Bq                    7.25      1.5      -0.25 
 Bq                    7.25      1.5       0. 
 Bq                    7.25      1.5       0.25 
 Bq                    7.25      1.5       0.5 
 Bq                    7.25      1.5       0.75 
 Bq                    7.25      1.5       1. 
 Bq                    7.25      1.5       1.25 
 Bq                    7.25      1.5       1.5 
 Bq                    7.25      1.5       1.75 
 Bq                    7.25      1.5       2. 
 Bq                    7.25      1.5       2.25 
 Bq                    7.25      1.5       2.5 
 Bq                    7.25      1.5       2.75 
 Bq                    7.25      1.5       3. 
 Bq                    7.25      1.5       3.25 
 Bq                    7.25      1.5       3.5 
 Bq                    7.25      1.5       3.75 
 Bq                    7.25      1.5       4. 
 Bq                    7.25      1.5       4.25 
 Bq                    7.25      1.5       4.5 
 Bq                    7.25      1.5       4.75 
 Bq                    7.25      1.5       5. 
 Bq                    7.25      1.5       5.25 
 Bq                    7.25      1.5       5.5 
 Bq                    7.25      1.5       5.75 
 Bq                    7.25      1.5       6. 
 Bq                    7.25      1.75     -6. 
 Bq                    7.25      1.75     -5.75 
 Bq                    7.25      1.75     -5.5 
 Bq                    7.25      1.75     -5.25 
 Bq                    7.25      1.75     -5. 
 Bq                    7.25      1.75     -4.75 
 Bq                    7.25      1.75     -4.5 
 Bq                    7.25      1.75     -4.25 
 Bq                    7.25      1.75     -4. 
 Bq                    7.25      1.75     -3.75 
 Bq                    7.25      1.75     -3.5 
 Bq                    7.25      1.75     -3.25 
 Bq                    7.25      1.75     -3. 
 Bq                    7.25      1.75     -2.75 
 Bq                    7.25      1.75     -2.5 
 Bq                    7.25      1.75     -2.25 
 Bq                    7.25      1.75     -2. 
 Bq                    7.25      1.75     -1.75 
 Bq                    7.25      1.75     -1.5 
 Bq                    7.25      1.75     -1.25 
 Bq                    7.25      1.75     -1. 
 Bq                    7.25      1.75     -0.75 
 Bq                    7.25      1.75     -0.5 
 Bq                    7.25      1.75     -0.25 
 Bq                    7.25      1.75      0. 
 Bq                    7.25      1.75      0.25 
 Bq                    7.25      1.75      0.5 
 Bq                    7.25      1.75      0.75 
 Bq                    7.25      1.75      1. 
 Bq                    7.25      1.75      1.25 
 Bq                    7.25      1.75      1.5 
 Bq                    7.25      1.75      1.75 
 Bq                    7.25      1.75      2. 
 Bq                    7.25      1.75      2.25 
 Bq                    7.25      1.75      2.5 
 Bq                    7.25      1.75      2.75 
 Bq                    7.25      1.75      3. 
 Bq                    7.25      1.75      3.25 
 Bq                    7.25      1.75      3.5 
 Bq                    7.25      1.75      3.75 
 Bq                    7.25      1.75      4. 
 Bq                    7.25      1.75      4.25 
 Bq                    7.25      1.75      4.5 
 Bq                    7.25      1.75      4.75 
 Bq                    7.25      1.75      5. 
 Bq                    7.25      1.75      5.25 
 Bq                    7.25      1.75      5.5 
 Bq                    7.25      1.75      5.75 
 Bq                    7.25      1.75      6. 
 Bq                    7.25      2.       -6. 
 Bq                    7.25      2.       -5.75 
 Bq                    7.25      2.       -5.5 
 Bq                    7.25      2.       -5.25 
 Bq                    7.25      2.       -5. 
 Bq                    7.25      2.       -4.75 
 Bq                    7.25      2.       -4.5 
 Bq                    7.25      2.       -4.25 
 Bq                    7.25      2.       -4. 
 Bq                    7.25      2.       -3.75 
 Bq                    7.25      2.       -3.5 
 Bq                    7.25      2.       -3.25 
 Bq                    7.25      2.       -3. 
 Bq                    7.25      2.       -2.75 
 Bq                    7.25      2.       -2.5 
 Bq                    7.25      2.       -2.25 
 Bq                    7.25      2.       -2. 
 Bq                    7.25      2.       -1.75 
 Bq                    7.25      2.       -1.5 
 Bq                    7.25      2.       -1.25 
 Bq                    7.25      2.       -1. 
 Bq                    7.25      2.       -0.75 
 Bq                    7.25      2.       -0.5 
 Bq                    7.25      2.       -0.25 
 Bq                    7.25      2.        0. 
 Bq                    7.25      2.        0.25 
 Bq                    7.25      2.        0.5 
 Bq                    7.25      2.        0.75 
 Bq                    7.25      2.        1. 
 Bq                    7.25      2.        1.25 
 Bq                    7.25      2.        1.5 
 Bq                    7.25      2.        1.75 
 Bq                    7.25      2.        2. 
 Bq                    7.25      2.        2.25 
 Bq                    7.25      2.        2.5 
 Bq                    7.25      2.        2.75 
 Bq                    7.25      2.        3. 
 Bq                    7.25      2.        3.25 
 Bq                    7.25      2.        3.5 
 Bq                    7.25      2.        3.75 
 Bq                    7.25      2.        4. 
 Bq                    7.25      2.        4.25 
 Bq                    7.25      2.        4.5 
 Bq                    7.25      2.        4.75 
 Bq                    7.25      2.        5. 
 Bq                    7.25      2.        5.25 
 Bq                    7.25      2.        5.5 
 Bq                    7.25      2.        5.75 
 Bq                    7.25      2.        6. 
 Bq                    7.25      2.25     -6. 
 Bq                    7.25      2.25     -5.75 
 Bq                    7.25      2.25     -5.5 
 Bq                    7.25      2.25     -5.25 
 Bq                    7.25      2.25     -5. 
 Bq                    7.25      2.25     -4.75 
 Bq                    7.25      2.25     -4.5 
 Bq                    7.25      2.25     -4.25 
 Bq                    7.25      2.25     -4. 
 Bq                    7.25      2.25     -3.75 
 Bq                    7.25      2.25     -3.5 
 Bq                    7.25      2.25     -3.25 
 Bq                    7.25      2.25     -3. 
 Bq                    7.25      2.25     -2.75 
 Bq                    7.25      2.25     -2.5 
 Bq                    7.25      2.25     -2.25 
 Bq                    7.25      2.25     -2. 
 Bq                    7.25      2.25     -1.75 
 Bq                    7.25      2.25     -1.5 
 Bq                    7.25      2.25     -1.25 
 Bq                    7.25      2.25     -1. 
 Bq                    7.25      2.25     -0.75 
 Bq                    7.25      2.25     -0.5 
 Bq                    7.25      2.25     -0.25 
 Bq                    7.25      2.25      0. 
 Bq                    7.25      2.25      0.25 
 Bq                    7.25      2.25      0.5 
 Bq                    7.25      2.25      0.75 
 Bq                    7.25      2.25      1. 
 Bq                    7.25      2.25      1.25 
 Bq                    7.25      2.25      1.5 
 Bq                    7.25      2.25      1.75 
 Bq                    7.25      2.25      2. 
 Bq                    7.25      2.25      2.25 
 Bq                    7.25      2.25      2.5 
 Bq                    7.25      2.25      2.75 
 Bq                    7.25      2.25      3. 
 Bq                    7.25      2.25      3.25 
 Bq                    7.25      2.25      3.5 
 Bq                    7.25      2.25      3.75 
 Bq                    7.25      2.25      4. 
 Bq                    7.25      2.25      4.25 
 Bq                    7.25      2.25      4.5 
 Bq                    7.25      2.25      4.75 
 Bq                    7.25      2.25      5. 
 Bq                    7.25      2.25      5.25 
 Bq                    7.25      2.25      5.5 
 Bq                    7.25      2.25      5.75 
 Bq                    7.25      2.25      6. 
 Bq                    7.25      2.5      -6. 
 Bq                    7.25      2.5      -5.75 
 Bq                    7.25      2.5      -5.5 
 Bq                    7.25      2.5      -5.25 
 Bq                    7.25      2.5      -5. 
 Bq                    7.25      2.5      -4.75 
 Bq                    7.25      2.5      -4.5 
 Bq                    7.25      2.5      -4.25 
 Bq                    7.25      2.5      -4. 
 Bq                    7.25      2.5      -3.75 
 Bq                    7.25      2.5      -3.5 
 Bq                    7.25      2.5      -3.25 
 Bq                    7.25      2.5      -3. 
 Bq                    7.25      2.5      -2.75 
 Bq                    7.25      2.5      -2.5 
 Bq                    7.25      2.5      -2.25 
 Bq                    7.25      2.5      -2. 
 Bq                    7.25      2.5      -1.75 
 Bq                    7.25      2.5      -1.5 
 Bq                    7.25      2.5      -1.25 
 Bq                    7.25      2.5      -1. 
 Bq                    7.25      2.5      -0.75 
 Bq                    7.25      2.5      -0.5 
 Bq                    7.25      2.5      -0.25 
 Bq                    7.25      2.5       0. 
 Bq                    7.25      2.5       0.25 
 Bq                    7.25      2.5       0.5 
 Bq                    7.25      2.5       0.75 
 Bq                    7.25      2.5       1. 
 Bq                    7.25      2.5       1.25 
 Bq                    7.25      2.5       1.5 
 Bq                    7.25      2.5       1.75 
 Bq                    7.25      2.5       2. 
 Bq                    7.25      2.5       2.25 
 Bq                    7.25      2.5       2.5 
 Bq                    7.25      2.5       2.75 
 Bq                    7.25      2.5       3. 
 Bq                    7.25      2.5       3.25 
 Bq                    7.25      2.5       3.5 
 Bq                    7.25      2.5       3.75 
 Bq                    7.25      2.5       4. 
 Bq                    7.25      2.5       4.25 
 Bq                    7.25      2.5       4.5 
 Bq                    7.25      2.5       4.75 
 Bq                    7.25      2.5       5. 
 Bq                    7.25      2.5       5.25 
 Bq                    7.25      2.5       5.5 
 Bq                    7.25      2.5       5.75 
 Bq                    7.25      2.5       6. 
 Bq                    7.25      2.75     -6. 
 Bq                    7.25      2.75     -5.75 
 Bq                    7.25      2.75     -5.5 
 Bq                    7.25      2.75     -5.25 
 Bq                    7.25      2.75     -5. 
 Bq                    7.25      2.75     -4.75 
 Bq                    7.25      2.75     -4.5 
 Bq                    7.25      2.75     -4.25 
 Bq                    7.25      2.75     -4. 
 Bq                    7.25      2.75     -3.75 
 Bq                    7.25      2.75     -3.5 
 Bq                    7.25      2.75     -3.25 
 Bq                    7.25      2.75     -3. 
 Bq                    7.25      2.75     -2.75 
 Bq                    7.25      2.75     -2.5 
 Bq                    7.25      2.75     -2.25 
 Bq                    7.25      2.75     -2. 
 Bq                    7.25      2.75     -1.75 
 Bq                    7.25      2.75     -1.5 
 Bq                    7.25      2.75     -1.25 
 Bq                    7.25      2.75     -1. 
 Bq                    7.25      2.75     -0.75 
 Bq                    7.25      2.75     -0.5 
 Bq                    7.25      2.75     -0.25 
 Bq                    7.25      2.75      0. 
 Bq                    7.25      2.75      0.25 
 Bq                    7.25      2.75      0.5 
 Bq                    7.25      2.75      0.75 
 Bq                    7.25      2.75      1. 
 Bq                    7.25      2.75      1.25 
 Bq                    7.25      2.75      1.5 
 Bq                    7.25      2.75      1.75 
 Bq                    7.25      2.75      2. 
 Bq                    7.25      2.75      2.25 
 Bq                    7.25      2.75      2.5 
 Bq                    7.25      2.75      2.75 
 Bq                    7.25      2.75      3. 
 Bq                    7.25      2.75      3.25 
 Bq                    7.25      2.75      3.5 
 Bq                    7.25      2.75      3.75 
 Bq                    7.25      2.75      4. 
 Bq                    7.25      2.75      4.25 
 Bq                    7.25      2.75      4.5 
 Bq                    7.25      2.75      4.75 
 Bq                    7.25      2.75      5. 
 Bq                    7.25      2.75      5.25 
 Bq                    7.25      2.75      5.5 
 Bq                    7.25      2.75      5.75 
 Bq                    7.25      2.75      6. 
 Bq                    7.25      3.       -6. 
 Bq                    7.25      3.       -5.75 
 Bq                    7.25      3.       -5.5 
 Bq                    7.25      3.       -5.25 
 Bq                    7.25      3.       -5. 
 Bq                    7.25      3.       -4.75 
 Bq                    7.25      3.       -4.5 
 Bq                    7.25      3.       -4.25 
 Bq                    7.25      3.       -4. 
 Bq                    7.25      3.       -3.75 
 Bq                    7.25      3.       -3.5 
 Bq                    7.25      3.       -3.25 
 Bq                    7.25      3.       -3. 
 Bq                    7.25      3.       -2.75 
 Bq                    7.25      3.       -2.5 
 Bq                    7.25      3.       -2.25 
 Bq                    7.25      3.       -2. 
 Bq                    7.25      3.       -1.75 
 Bq                    7.25      3.       -1.5 
 Bq                    7.25      3.       -1.25 
 Bq                    7.25      3.       -1. 
 Bq                    7.25      3.       -0.75 
 Bq                    7.25      3.       -0.5 
 Bq                    7.25      3.       -0.25 
 Bq                    7.25      3.        0. 
 Bq                    7.25      3.        0.25 
 Bq                    7.25      3.        0.5 
 Bq                    7.25      3.        0.75 
 Bq                    7.25      3.        1. 
 Bq                    7.25      3.        1.25 
 Bq                    7.25      3.        1.5 
 Bq                    7.25      3.        1.75 
 Bq                    7.25      3.        2. 
 Bq                    7.25      3.        2.25 
 Bq                    7.25      3.        2.5 
 Bq                    7.25      3.        2.75 
 Bq                    7.25      3.        3. 
 Bq                    7.25      3.        3.25 
 Bq                    7.25      3.        3.5 
 Bq                    7.25      3.        3.75 
 Bq                    7.25      3.        4. 
 Bq                    7.25      3.        4.25 
 Bq                    7.25      3.        4.5 
 Bq                    7.25      3.        4.75 
 Bq                    7.25      3.        5. 
 Bq                    7.25      3.        5.25 
 Bq                    7.25      3.        5.5 
 Bq                    7.25      3.        5.75 
 Bq                    7.25      3.        6. 
 Bq                    7.25      3.25     -6. 
 Bq                    7.25      3.25     -5.75 
 Bq                    7.25      3.25     -5.5 
 Bq                    7.25      3.25     -5.25 
 Bq                    7.25      3.25     -5. 
 Bq                    7.25      3.25     -4.75 
 Bq                    7.25      3.25     -4.5 
 Bq                    7.25      3.25     -4.25 
 Bq                    7.25      3.25     -4. 
 Bq                    7.25      3.25     -3.75 
 Bq                    7.25      3.25     -3.5 
 Bq                    7.25      3.25     -3.25 
 Bq                    7.25      3.25     -3. 
 Bq                    7.25      3.25     -2.75 
 Bq                    7.25      3.25     -2.5 
 Bq                    7.25      3.25     -2.25 
 Bq                    7.25      3.25     -2. 
 Bq                    7.25      3.25     -1.75 
 Bq                    7.25      3.25     -1.5 
 Bq                    7.25      3.25     -1.25 
 Bq                    7.25      3.25     -1. 
 Bq                    7.25      3.25     -0.75 
 Bq                    7.25      3.25     -0.5 
 Bq                    7.25      3.25     -0.25 
 Bq                    7.25      3.25      0. 
 Bq                    7.25      3.25      0.25 
 Bq                    7.25      3.25      0.5 
 Bq                    7.25      3.25      0.75 
 Bq                    7.25      3.25      1. 
 Bq                    7.25      3.25      1.25 
 Bq                    7.25      3.25      1.5 
 Bq                    7.25      3.25      1.75 
 Bq                    7.25      3.25      2. 
 Bq                    7.25      3.25      2.25 
 Bq                    7.25      3.25      2.5 
 Bq                    7.25      3.25      2.75 
 Bq                    7.25      3.25      3. 
 Bq                    7.25      3.25      3.25 
 Bq                    7.25      3.25      3.5 
 Bq                    7.25      3.25      3.75 
 Bq                    7.25      3.25      4. 
 Bq                    7.25      3.25      4.25 
 Bq                    7.25      3.25      4.5 
 Bq                    7.25      3.25      4.75 
 Bq                    7.25      3.25      5. 
 Bq                    7.25      3.25      5.25 
 Bq                    7.25      3.25      5.5 
 Bq                    7.25      3.25      5.75 
 Bq                    7.25      3.25      6. 
 Bq                    7.25      3.5      -6. 
 Bq                    7.25      3.5      -5.75 
 Bq                    7.25      3.5      -5.5 
 Bq                    7.25      3.5      -5.25 
 Bq                    7.25      3.5      -5. 
 Bq                    7.25      3.5      -4.75 
 Bq                    7.25      3.5      -4.5 
 Bq                    7.25      3.5      -4.25 
 Bq                    7.25      3.5      -4. 
 Bq                    7.25      3.5      -3.75 
 Bq                    7.25      3.5      -3.5 
 Bq                    7.25      3.5      -3.25 
 Bq                    7.25      3.5      -3. 
 Bq                    7.25      3.5      -2.75 
 Bq                    7.25      3.5      -2.5 
 Bq                    7.25      3.5      -2.25 
 Bq                    7.25      3.5      -2. 
 Bq                    7.25      3.5      -1.75 
 Bq                    7.25      3.5      -1.5 
 Bq                    7.25      3.5      -1.25 
 Bq                    7.25      3.5      -1. 
 Bq                    7.25      3.5      -0.75 
 Bq                    7.25      3.5      -0.5 
 Bq                    7.25      3.5      -0.25 
 Bq                    7.25      3.5       0. 
 Bq                    7.25      3.5       0.25 
 Bq                    7.25      3.5       0.5 
 Bq                    7.25      3.5       0.75 
 Bq                    7.25      3.5       1. 
 Bq                    7.25      3.5       1.25 
 Bq                    7.25      3.5       1.5 
 Bq                    7.25      3.5       1.75 
 Bq                    7.25      3.5       2. 
 Bq                    7.25      3.5       2.25 
 Bq                    7.25      3.5       2.5 
 Bq                    7.25      3.5       2.75 
 Bq                    7.25      3.5       3. 
 Bq                    7.25      3.5       3.25 
 Bq                    7.25      3.5       3.5 
 Bq                    7.25      3.5       3.75 
 Bq                    7.25      3.5       4. 
 Bq                    7.25      3.5       4.25 
 Bq                    7.25      3.5       4.5 
 Bq                    7.25      3.5       4.75 
 Bq                    7.25      3.5       5. 
 Bq                    7.25      3.5       5.25 
 Bq                    7.25      3.5       5.5 
 Bq                    7.25      3.5       5.75 
 Bq                    7.25      3.5       6. 
 Bq                    7.25      3.75     -6. 
 Bq                    7.25      3.75     -5.75 
 Bq                    7.25      3.75     -5.5 
 Bq                    7.25      3.75     -5.25 
 Bq                    7.25      3.75     -5. 
 Bq                    7.25      3.75     -4.75 
 Bq                    7.25      3.75     -4.5 
 Bq                    7.25      3.75     -4.25 
 Bq                    7.25      3.75     -4. 
 Bq                    7.25      3.75     -3.75 
 Bq                    7.25      3.75     -3.5 
 Bq                    7.25      3.75     -3.25 
 Bq                    7.25      3.75     -3. 
 Bq                    7.25      3.75     -2.75 
 Bq                    7.25      3.75     -2.5 
 Bq                    7.25      3.75     -2.25 
 Bq                    7.25      3.75     -2. 
 Bq                    7.25      3.75     -1.75 
 Bq                    7.25      3.75     -1.5 
 Bq                    7.25      3.75     -1.25 
 Bq                    7.25      3.75     -1. 
 Bq                    7.25      3.75     -0.75 
 Bq                    7.25      3.75     -0.5 
 Bq                    7.25      3.75     -0.25 
 Bq                    7.25      3.75      0. 
 Bq                    7.25      3.75      0.25 
 Bq                    7.25      3.75      0.5 
 Bq                    7.25      3.75      0.75 
 Bq                    7.25      3.75      1. 
 Bq                    7.25      3.75      1.25 
 Bq                    7.25      3.75      1.5 
 Bq                    7.25      3.75      1.75 
 Bq                    7.25      3.75      2. 
 Bq                    7.25      3.75      2.25 
 Bq                    7.25      3.75      2.5 
 Bq                    7.25      3.75      2.75 
 Bq                    7.25      3.75      3. 
 Bq                    7.25      3.75      3.25 
 Bq                    7.25      3.75      3.5 
 Bq                    7.25      3.75      3.75 
 Bq                    7.25      3.75      4. 
 Bq                    7.25      3.75      4.25 
 Bq                    7.25      3.75      4.5 
 Bq                    7.25      3.75      4.75 
 Bq                    7.25      3.75      5. 
 Bq                    7.25      3.75      5.25 
 Bq                    7.25      3.75      5.5 
 Bq                    7.25      3.75      5.75 
 Bq                    7.25      3.75      6. 
 Bq                    7.25      4.       -6. 
 Bq                    7.25      4.       -5.75 
 Bq                    7.25      4.       -5.5 
 Bq                    7.25      4.       -5.25 
 Bq                    7.25      4.       -5. 
 Bq                    7.25      4.       -4.75 
 Bq                    7.25      4.       -4.5 
 Bq                    7.25      4.       -4.25 
 Bq                    7.25      4.       -4. 
 Bq                    7.25      4.       -3.75 
 Bq                    7.25      4.       -3.5 
 Bq                    7.25      4.       -3.25 
 Bq                    7.25      4.       -3. 
 Bq                    7.25      4.       -2.75 
 Bq                    7.25      4.       -2.5 
 Bq                    7.25      4.       -2.25 
 Bq                    7.25      4.       -2. 
 Bq                    7.25      4.       -1.75 
 Bq                    7.25      4.       -1.5 
 Bq                    7.25      4.       -1.25 
 Bq                    7.25      4.       -1. 
 Bq                    7.25      4.       -0.75 
 Bq                    7.25      4.       -0.5 
 Bq                    7.25      4.       -0.25 
 Bq                    7.25      4.        0. 
 Bq                    7.25      4.        0.25 
 Bq                    7.25      4.        0.5 
 Bq                    7.25      4.        0.75 
 Bq                    7.25      4.        1. 
 Bq                    7.25      4.        1.25 
 Bq                    7.25      4.        1.5 
 Bq                    7.25      4.        1.75 
 Bq                    7.25      4.        2. 
 Bq                    7.25      4.        2.25 
 Bq                    7.25      4.        2.5 
 Bq                    7.25      4.        2.75 
 Bq                    7.25      4.        3. 
 Bq                    7.25      4.        3.25 
 Bq                    7.25      4.        3.5 
 Bq                    7.25      4.        3.75 
 Bq                    7.25      4.        4. 
 Bq                    7.25      4.        4.25 
 Bq                    7.25      4.        4.5 
 Bq                    7.25      4.        4.75 
 Bq                    7.25      4.        5. 
 Bq                    7.25      4.        5.25 
 Bq                    7.25      4.        5.5 
 Bq                    7.25      4.        5.75 
 Bq                    7.25      4.        6. 
 Bq                    7.25      4.25     -6. 
 Bq                    7.25      4.25     -5.75 
 Bq                    7.25      4.25     -5.5 
 Bq                    7.25      4.25     -5.25 
 Bq                    7.25      4.25     -5. 
 Bq                    7.25      4.25     -4.75 
 Bq                    7.25      4.25     -4.5 
 Bq                    7.25      4.25     -4.25 
 Bq                    7.25      4.25     -4. 
 Bq                    7.25      4.25     -3.75 
 Bq                    7.25      4.25     -3.5 
 Bq                    7.25      4.25     -3.25 
 Bq                    7.25      4.25     -3. 
 Bq                    7.25      4.25     -2.75 
 Bq                    7.25      4.25     -2.5 
 Bq                    7.25      4.25     -2.25 
 Bq                    7.25      4.25     -2. 
 Bq                    7.25      4.25     -1.75 
 Bq                    7.25      4.25     -1.5 
 Bq                    7.25      4.25     -1.25 
 Bq                    7.25      4.25     -1. 
 Bq                    7.25      4.25     -0.75 
 Bq                    7.25      4.25     -0.5 
 Bq                    7.25      4.25     -0.25 
 Bq                    7.25      4.25      0. 
 Bq                    7.25      4.25      0.25 
 Bq                    7.25      4.25      0.5 
 Bq                    7.25      4.25      0.75 
 Bq                    7.25      4.25      1. 
 Bq                    7.25      4.25      1.25 
 Bq                    7.25      4.25      1.5 
 Bq                    7.25      4.25      1.75 
 Bq                    7.25      4.25      2. 
 Bq                    7.25      4.25      2.25 
 Bq                    7.25      4.25      2.5 
 Bq                    7.25      4.25      2.75 
 Bq                    7.25      4.25      3. 
 Bq                    7.25      4.25      3.25 
 Bq                    7.25      4.25      3.5 
 Bq                    7.25      4.25      3.75 
 Bq                    7.25      4.25      4. 
 Bq                    7.25      4.25      4.25 
 Bq                    7.25      4.25      4.5 
 Bq                    7.25      4.25      4.75 
 Bq                    7.25      4.25      5. 
 Bq                    7.25      4.25      5.25 
 Bq                    7.25      4.25      5.5 
 Bq                    7.25      4.25      5.75 
 Bq                    7.25      4.25      6. 
 Bq                    7.25      4.5      -6. 
 Bq                    7.25      4.5      -5.75 
 Bq                    7.25      4.5      -5.5 
 Bq                    7.25      4.5      -5.25 
 Bq                    7.25      4.5      -5. 
 Bq                    7.25      4.5      -4.75 
 Bq                    7.25      4.5      -4.5 
 Bq                    7.25      4.5      -4.25 
 Bq                    7.25      4.5      -4. 
 Bq                    7.25      4.5      -3.75 
 Bq                    7.25      4.5      -3.5 
 Bq                    7.25      4.5      -3.25 
 Bq                    7.25      4.5      -3. 
 Bq                    7.25      4.5      -2.75 
 Bq                    7.25      4.5      -2.5 
 Bq                    7.25      4.5      -2.25 
 Bq                    7.25      4.5      -2. 
 Bq                    7.25      4.5      -1.75 
 Bq                    7.25      4.5      -1.5 
 Bq                    7.25      4.5      -1.25 
 Bq                    7.25      4.5      -1. 
 Bq                    7.25      4.5      -0.75 
 Bq                    7.25      4.5      -0.5 
 Bq                    7.25      4.5      -0.25 
 Bq                    7.25      4.5       0. 
 Bq                    7.25      4.5       0.25 
 Bq                    7.25      4.5       0.5 
 Bq                    7.25      4.5       0.75 
 Bq                    7.25      4.5       1. 
 Bq                    7.25      4.5       1.25 
 Bq                    7.25      4.5       1.5 
 Bq                    7.25      4.5       1.75 
 Bq                    7.25      4.5       2. 
 Bq                    7.25      4.5       2.25 
 Bq                    7.25      4.5       2.5 
 Bq                    7.25      4.5       2.75 
 Bq                    7.25      4.5       3. 
 Bq                    7.25      4.5       3.25 
 Bq                    7.25      4.5       3.5 
 Bq                    7.25      4.5       3.75 
 Bq                    7.25      4.5       4. 
 Bq                    7.25      4.5       4.25 
 Bq                    7.25      4.5       4.5 
 Bq                    7.25      4.5       4.75 
 Bq                    7.25      4.5       5. 
 Bq                    7.25      4.5       5.25 
 Bq                    7.25      4.5       5.5 
 Bq                    7.25      4.5       5.75 
 Bq                    7.25      4.5       6. 
 Bq                    7.25      4.75     -6. 
 Bq                    7.25      4.75     -5.75 
 Bq                    7.25      4.75     -5.5 
 Bq                    7.25      4.75     -5.25 
 Bq                    7.25      4.75     -5. 
 Bq                    7.25      4.75     -4.75 
 Bq                    7.25      4.75     -4.5 
 Bq                    7.25      4.75     -4.25 
 Bq                    7.25      4.75     -4. 
 Bq                    7.25      4.75     -3.75 
 Bq                    7.25      4.75     -3.5 
 Bq                    7.25      4.75     -3.25 
 Bq                    7.25      4.75     -3. 
 Bq                    7.25      4.75     -2.75 
 Bq                    7.25      4.75     -2.5 
 Bq                    7.25      4.75     -2.25 
 Bq                    7.25      4.75     -2. 
 Bq                    7.25      4.75     -1.75 
 Bq                    7.25      4.75     -1.5 
 Bq                    7.25      4.75     -1.25 
 Bq                    7.25      4.75     -1. 
 Bq                    7.25      4.75     -0.75 
 Bq                    7.25      4.75     -0.5 
 Bq                    7.25      4.75     -0.25 
 Bq                    7.25      4.75      0. 
 Bq                    7.25      4.75      0.25 
 Bq                    7.25      4.75      0.5 
 Bq                    7.25      4.75      0.75 
 Bq                    7.25      4.75      1. 
 Bq                    7.25      4.75      1.25 
 Bq                    7.25      4.75      1.5 
 Bq                    7.25      4.75      1.75 
 Bq                    7.25      4.75      2. 
 Bq                    7.25      4.75      2.25 
 Bq                    7.25      4.75      2.5 
 Bq                    7.25      4.75      2.75 
 Bq                    7.25      4.75      3. 
 Bq                    7.25      4.75      3.25 
 Bq                    7.25      4.75      3.5 
 Bq                    7.25      4.75      3.75 
 Bq                    7.25      4.75      4. 
 Bq                    7.25      4.75      4.25 
 Bq                    7.25      4.75      4.5 
 Bq                    7.25      4.75      4.75 
 Bq                    7.25      4.75      5. 
 Bq                    7.25      4.75      5.25 
 Bq                    7.25      4.75      5.5 
 Bq                    7.25      4.75      5.75 
 Bq                    7.25      4.75      6. 
 Bq                    7.25      5.       -6. 
 Bq                    7.25      5.       -5.75 
 Bq                    7.25      5.       -5.5 
 Bq                    7.25      5.       -5.25 
 Bq                    7.25      5.       -5. 
 Bq                    7.25      5.       -4.75 
 Bq                    7.25      5.       -4.5 
 Bq                    7.25      5.       -4.25 
 Bq                    7.25      5.       -4. 
 Bq                    7.25      5.       -3.75 
 Bq                    7.25      5.       -3.5 
 Bq                    7.25      5.       -3.25 
 Bq                    7.25      5.       -3. 
 Bq                    7.25      5.       -2.75 
 Bq                    7.25      5.       -2.5 
 Bq                    7.25      5.       -2.25 
 Bq                    7.25      5.       -2. 
 Bq                    7.25      5.       -1.75 
 Bq                    7.25      5.       -1.5 
 Bq                    7.25      5.       -1.25 
 Bq                    7.25      5.       -1. 
 Bq                    7.25      5.       -0.75 
 Bq                    7.25      5.       -0.5 
 Bq                    7.25      5.       -0.25 
 Bq                    7.25      5.        0. 
 Bq                    7.25      5.        0.25 
 Bq                    7.25      5.        0.5 
 Bq                    7.25      5.        0.75 
 Bq                    7.25      5.        1. 
 Bq                    7.25      5.        1.25 
 Bq                    7.25      5.        1.5 
 Bq                    7.25      5.        1.75 
 Bq                    7.25      5.        2. 
 Bq                    7.25      5.        2.25 
 Bq                    7.25      5.        2.5 
 Bq                    7.25      5.        2.75 
 Bq                    7.25      5.        3. 
 Bq                    7.25      5.        3.25 
 Bq                    7.25      5.        3.5 
 Bq                    7.25      5.        3.75 
 Bq                    7.25      5.        4. 
 Bq                    7.25      5.        4.25 
 Bq                    7.25      5.        4.5 
 Bq                    7.25      5.        4.75 
 Bq                    7.25      5.        5. 
 Bq                    7.25      5.        5.25 
 Bq                    7.25      5.        5.5 
 Bq                    7.25      5.        5.75 
 Bq                    7.25      5.        6. 
 Bq                    7.25      5.25     -6. 
 Bq                    7.25      5.25     -5.75 
 Bq                    7.25      5.25     -5.5 
 Bq                    7.25      5.25     -5.25 
 Bq                    7.25      5.25     -5. 
 Bq                    7.25      5.25     -4.75 
 Bq                    7.25      5.25     -4.5 
 Bq                    7.25      5.25     -4.25 
 Bq                    7.25      5.25     -4. 
 Bq                    7.25      5.25     -3.75 
 Bq                    7.25      5.25     -3.5 
 Bq                    7.25      5.25     -3.25 
 Bq                    7.25      5.25     -3. 
 Bq                    7.25      5.25     -2.75 
 Bq                    7.25      5.25     -2.5 
[...]
 ,0,7.5,1.25,0.5\Bq,0,7.5,1.25,0.75\Bq,0,7.5,1.25,1.\Bq,0,7.5,1.25,1.25
 \Bq,0,7.5,1.25,1.5\Bq,0,7.5,1.25,1.75\Bq,0,7.5,1.25,2.\Bq,0,7.5,1.25,2
 .25\Bq,0,7.5,1.25,2.5\Bq,0,7.5,1.25,2.75\Bq,0,7.5,1.25,3.\Bq,0,7.5,1.2
 5,3.25\Bq,0,7.5,1.25,3.5\Bq,0,7.5,1.25,3.75\Bq,0,7.5,1.25,4.\Bq,0,7.5,
 1.25,4.25\Bq,0,7.5,1.25,4.5\Bq,0,7.5,1.25,4.75\Bq,0,7.5,1.25,5.\Bq,0,7
 .5,1.25,5.25\Bq,0,7.5,1.25,5.5\Bq,0,7.5,1.25,5.75\Bq,0,7.5,1.25,6.\Bq,
 0,7.5,1.5,-6.\Bq,0,7.5,1.5,-5.75\Bq,0,7.5,1.5,-5.5\Bq,0,7.5,1.5,-5.25\
 Bq,0,7.5,1.5,-5.\Bq,0,7.5,1.5,-4.75\Bq,0,7.5,1.5,-4.5\Bq,0,7.5,1.5,-4.
 25\Bq,0,7.5,1.5,-4.\Bq,0,7.5,1.5,-3.75\Bq,0,7.5,1.5,-3.5\Bq,0,7.5,1.5,
 -3.25\Bq,0,7.5,1.5,-3.\Bq,0,7.5,1.5,-2.75\Bq,0,7.5,1.5,-2.5\Bq,0,7.5,1
 .5,-2.25\Bq,0,7.5,1.5,-2.\Bq,0,7.5,1.5,-1.75\Bq,0,7.5,1.5,-1.5\Bq,0,7.
 5,1.5,-1.25\Bq,0,7.5,1.5,-1.\Bq,0,7.5,1.5,-0.75\Bq,0,7.5,1.5,-0.5\Bq,0
 ,7.5,1.5,-0.25\Bq,0,7.5,1.5,0.\Bq,0,7.5,1.5,0.25\Bq,0,7.5,1.5,0.5\Bq,0
 ,7.5,1.5,0.75\Bq,0,7.5,1.5,1.\Bq,0,7.5,1.5,1.25\Bq,0,7.5,1.5,1.5\Bq,0,
 7.5,1.5,1.75\Bq,0,7.5,1.5,2.\Bq,0,7.5,1.5,2.25\Bq,0,7.5,1.5,2.5\Bq,0,7
 .5,1.5,2.75\Bq,0,7.5,1.5,3.\Bq,0,7.5,1.5,3.25\Bq,0,7.5,1.5,3.5\Bq,0,7.
 5,1.5,3.75\Bq,0,7.5,1.5,4.\Bq,0,7.5,1.5,4.25\Bq,0,7.5,1.5,4.5\Bq,0,7.5
 ,1.5,4.75\Bq,0,7.5,1.5,5.\Bq,0,7.5,1.5,5.25\Bq,0,7.5,1.5,5.5\Bq,0,7.5,
 1.5,5.75\Bq,0,7.5,1.5,6.\Bq,0,7.5,1.75,-6.\Bq,0,7.5,1.75,-5.75\Bq,0,7.
 5,1.75,-5.5\Bq,0,7.5,1.75,-5.25\Bq,0,7.5,1.75,-5.\Bq,0,7.5,1.75,-4.75\
 Bq,0,7.5,1.75,-4.5\Bq,0,7.5,1.75,-4.25\Bq,0,7.5,1.75,-4.\Bq,0,7.5,1.75
 ,-3.75\Bq,0,7.5,1.75,-3.5\Bq,0,7.5,1.75,-3.25\Bq,0,7.5,1.75,-3.\Bq,0,7
 .5,1.75,-2.75\Bq,0,7.5,1.75,-2.5\Bq,0,7.5,1.75,-2.25\Bq,0,7.5,1.75,-2.
 \Bq,0,7.5,1.75,-1.75\Bq,0,7.5,1.75,-1.5\Bq,0,7.5,1.75,-1.25\Bq,0,7.5,1
 .75,-1.\Bq,0,7.5,1.75,-0.75\Bq,0,7.5,1.75,-0.5\Bq,0,7.5,1.75,-0.25\Bq,
 0,7.5,1.75,0.\Bq,0,7.5,1.75,0.25\Bq,0,7.5,1.75,0.5\Bq,0,7.5,1.75,0.75\
 Bq,0,7.5,1.75,1.\Bq,0,7.5,1.75,1.25\Bq,0,7.5,1.75,1.5\Bq,0,7.5,1.75,1.
 75\Bq,0,7.5,1.75,2.\Bq,0,7.5,1.75,2.25\Bq,0,7.5,1.75,2.5\Bq,0,7.5,1.75
 ,2.75\Bq,0,7.5,1.75,3.\Bq,0,7.5,1.75,3.25\Bq,0,7.5,1.75,3.5\Bq,0,7.5,1
 .75,3.75\Bq,0,7.5,1.75,4.\Bq,0,7.5,1.75,4.25\Bq,0,7.5,1.75,4.5\Bq,0,7.
 5,1.75,4.75\Bq,0,7.5,1.75,5.\Bq,0,7.5,1.75,5.25\Bq,0,7.5,1.75,5.5\Bq,0
 ,7.5,1.75,5.75\Bq,0,7.5,1.75,6.\Bq,0,7.5,2.,-6.\Bq,0,7.5,2.,-5.75\Bq,0
 ,7.5,2.,-5.5\Bq,0,7.5,2.,-5.25\Bq,0,7.5,2.,-5.\Bq,0,7.5,2.,-4.75\Bq,0,
 7.5,2.,-4.5\Bq,0,7.5,2.,-4.25\Bq,0,7.5,2.,-4.\Bq,0,7.5,2.,-3.75\Bq,0,7
 .5,2.,-3.5\Bq,0,7.5,2.,-3.25\Bq,0,7.5,2.,-3.\Bq,0,7.5,2.,-2.75\Bq,0,7.
 5,2.,-2.5\Bq,0,7.5,2.,-2.25\Bq,0,7.5,2.,-2.\Bq,0,7.5,2.,-1.75\Bq,0,7.5
 ,2.,-1.5\Bq,0,7.5,2.,-1.25\Bq,0,7.5,2.,-1.\Bq,0,7.5,2.,-0.75\Bq,0,7.5,
 2.,-0.5\Bq,0,7.5,2.,-0.25\Bq,0,7.5,2.,0.\Bq,0,7.5,2.,0.25\Bq,0,7.5,2.,
 0.5\Bq,0,7.5,2.,0.75\Bq,0,7.5,2.,1.\Bq,0,7.5,2.,1.25\Bq,0,7.5,2.,1.5\B
 q,0,7.5,2.,1.75\Bq,0,7.5,2.,2.\Bq,0,7.5,2.,2.25\Bq,0,7.5,2.,2.5\Bq,0,7
 .5,2.,2.75\Bq,0,7.5,2.,3.\Bq,0,7.5,2.,3.25\Bq,0,7.5,2.,3.5\Bq,0,7.5,2.
 ,3.75\Bq,0,7.5,2.,4.\Bq,0,7.5,2.,4.25\Bq,0,7.5,2.,4.5\Bq,0,7.5,2.,4.75
 \Bq,0,7.5,2.,5.\Bq,0,7.5,2.,5.25\Bq,0,7.5,2.,5.5\Bq,0,7.5,2.,5.75\Bq,0
 ,7.5,2.,6.\Bq,0,7.5,2.25,-6.\Bq,0,7.5,2.25,-5.75\Bq,0,7.5,2.25,-5.5\Bq
 ,0,7.5,2.25,-5.25\Bq,0,7.5,2.25,-5.\Bq,0,7.5,2.25,-4.75\Bq,0,7.5,2.25,
 -4.5\Bq,0,7.5,2.25,-4.25\Bq,0,7.5,2.25,-4.\Bq,0,7.5,2.25,-3.75\Bq,0,7.
 5,2.25,-3.5\Bq,0,7.5,2.25,-3.25\Bq,0,7.5,2.25,-3.\Bq,0,7.5,2.25,-2.75\
 Bq,0,7.5,2.25,-2.5\Bq,0,7.5,2.25,-2.25\Bq,0,7.5,2.25,-2.\Bq,0,7.5,2.25
 ,-1.75\Bq,0,7.5,2.25,-1.5\Bq,0,7.5,2.25,-1.25\Bq,0,7.5,2.25,-1.\Bq,0,7
 .5,2.25,-0.75\Bq,0,7.5,2.25,-0.5\Bq,0,7.5,2.25,-0.25\Bq,0,7.5,2.25,0.\
 Bq,0,7.5,2.25,0.25\Bq,0,7.5,2.25,0.5\Bq,0,7.5,2.25,0.75\Bq,0,7.5,2.25,
 1.\Bq,0,7.5,2.25,1.25\Bq,0,7.5,2.25,1.5\Bq,0,7.5,2.25,1.75\Bq,0,7.5,2.
 25,2.\Bq,0,7.5,2.25,2.25\Bq,0,7.5,2.25,2.5\Bq,0,7.5,2.25,2.75\Bq,0,7.5
 ,2.25,3.\Bq,0,7.5,2.25,3.25\Bq,0,7.5,2.25,3.5\Bq,0,7.5,2.25,3.75\Bq,0,
 7.5,2.25,4.\Bq,0,7.5,2.25,4.25\Bq,0,7.5,2.25,4.5\Bq,0,7.5,2.25,4.75\Bq
 ,0,7.5,2.25,5.\Bq,0,7.5,2.25,5.25\Bq,0,7.5,2.25,5.5\Bq,0,7.5,2.25,5.75
 \Bq,0,7.5,2.25,6.\Bq,0,7.5,2.5,-6.\Bq,0,7.5,2.5,-5.75\Bq,0,7.5,2.5,-5.
 5\Bq,0,7.5,2.5,-5.25\Bq,0,7.5,2.5,-5.\Bq,0,7.5,2.5,-4.75\Bq,0,7.5,2.5,
 -4.5\Bq,0,7.5,2.5,-4.25\Bq,0,7.5,2.5,-4.\Bq,0,7.5,2.5,-3.75\Bq,0,7.5,2
 .5,-3.5\Bq,0,7.5,2.5,-3.25\Bq,0,7.5,2.5,-3.\Bq,0,7.5,2.5,-2.75\Bq,0,7.
 5,2.5,-2.5\Bq,0,7.5,2.5,-2.25\Bq,0,7.5,2.5,-2.\Bq,0,7.5,2.5,-1.75\Bq,0
 ,7.5,2.5,-1.5\Bq,0,7.5,2.5,-1.25\Bq,0,7.5,2.5,-1.\Bq,0,7.5,2.5,-0.75\B
 q,0,7.5,2.5,-0.5\Bq,0,7.5,2.5,-0.25\Bq,0,7.5,2.5,0.\Bq,0,7.5,2.5,0.25\
 Bq,0,7.5,2.5,0.5\Bq,0,7.5,2.5,0.75\Bq,0,7.5,2.5,1.\Bq,0,7.5,2.5,1.25\B
 q,0,7.5,2.5,1.5\Bq,0,7.5,2.5,1.75\Bq,0,7.5,2.5,2.\Bq,0,7.5,2.5,2.25\Bq
 ,0,7.5,2.5,2.5\Bq,0,7.5,2.5,2.75\Bq,0,7.5,2.5,3.\Bq,0,7.5,2.5,3.25\Bq,
 0,7.5,2.5,3.5\Bq,0,7.5,2.5,3.75\Bq,0,7.5,2.5,4.\Bq,0,7.5,2.5,4.25\Bq,0
 ,7.5,2.5,4.5\Bq,0,7.5,2.5,4.75\Bq,0,7.5,2.5,5.\Bq,0,7.5,2.5,5.25\Bq,0,
 7.5,2.5,5.5\Bq,0,7.5,2.5,5.75\Bq,0,7.5,2.5,6.\Bq,0,7.5,2.75,-6.\Bq,0,7
 .5,2.75,-5.75\Bq,0,7.5,2.75,-5.5\Bq,0,7.5,2.75,-5.25\Bq,0,7.5,2.75,-5.
 \Bq,0,7.5,2.75,-4.75\Bq,0,7.5,2.75,-4.5\Bq,0,7.5,2.75,-4.25\Bq,0,7.5,2
 .75,-4.\Bq,0,7.5,2.75,-3.75\Bq,0,7.5,2.75,-3.5\Bq,0,7.5,2.75,-3.25\Bq,
 0,7.5,2.75,-3.\Bq,0,7.5,2.75,-2.75\Bq,0,7.5,2.75,-2.5\Bq,0,7.5,2.75,-2
 .25\Bq,0,7.5,2.75,-2.\Bq,0,7.5,2.75,-1.75\Bq,0,7.5,2.75,-1.5\Bq,0,7.5,
 2.75,-1.25\Bq,0,7.5,2.75,-1.\Bq,0,7.5,2.75,-0.75\Bq,0,7.5,2.75,-0.5\Bq
 ,0,7.5,2.75,-0.25\Bq,0,7.5,2.75,0.\Bq,0,7.5,2.75,0.25\Bq,0,7.5,2.75,0.
 5\Bq,0,7.5,2.75,0.75\Bq,0,7.5,2.75,1.\Bq,0,7.5,2.75,1.25\Bq,0,7.5,2.75
 ,1.5\Bq,0,7.5,2.75,1.75\Bq,0,7.5,2.75,2.\Bq,0,7.5,2.75,2.25\Bq,0,7.5,2
 .75,2.5\Bq,0,7.5,2.75,2.75\Bq,0,7.5,2.75,3.\Bq,0,7.5,2.75,3.25\Bq,0,7.
 5,2.75,3.5\Bq,0,7.5,2.75,3.75\Bq,0,7.5,2.75,4.\Bq,0,7.5,2.75,4.25\Bq,0
 ,7.5,2.75,4.5\Bq,0,7.5,2.75,4.75\Bq,0,7.5,2.75,5.\Bq,0,7.5,2.75,5.25\B
 q,0,7.5,2.75,5.5\Bq,0,7.5,2.75,5.75\Bq,0,7.5,2.75,6.\Bq,0,7.5,3.,-6.\B
 q,0,7.5,3.,-5.75\Bq,0,7.5,3.,-5.5\Bq,0,7.5,3.,-5.25\Bq,0,7.5,3.,-5.\Bq
 ,0,7.5,3.,-4.75\Bq,0,7.5,3.,-4.5\Bq,0,7.5,3.,-4.25\Bq,0,7.5,3.,-4.\Bq,
 0,7.5,3.,-3.75\Bq,0,7.5,3.,-3.5\Bq,0,7.5,3.,-3.25\Bq,0,7.5,3.,-3.\Bq,0
 ,7.5,3.,-2.75\Bq,0,7.5,3.,-2.5\Bq,0,7.5,3.,-2.25\Bq,0,7.5,3.,-2.\Bq,0,
 7.5,3.,-1.75\Bq,0,7.5,3.,-1.5\Bq,0,7.5,3.,-1.25\Bq,0,7.5,3.,-1.\Bq,0,7
 .5,3.,-0.75\Bq,0,7.5,3.,-0.5\Bq,0,7.5,3.,-0.25\Bq,0,7.5,3.,0.\Bq,0,7.5
 ,3.,0.25\Bq,0,7.5,3.,0.5\Bq,0,7.5,3.,0.75\Bq,0,7.5,3.,1.\Bq,0,7.5,3.,1
 .25\Bq,0,7.5,3.,1.5\Bq,0,7.5,3.,1.75\Bq,0,7.5,3.,2.\Bq,0,7.5,3.,2.25\B
 q,0,7.5,3.,2.5\Bq,0,7.5,3.,2.75\Bq,0,7.5,3.,3.\Bq,0,7.5,3.,3.25\Bq,0,7
 .5,3.,3.5\Bq,0,7.5,3.,3.75\Bq,0,7.5,3.,4.\Bq,0,7.5,3.,4.25\Bq,0,7.5,3.
 ,4.5\Bq,0,7.5,3.,4.75\Bq,0,7.5,3.,5.\Bq,0,7.5,3.,5.25\Bq,0,7.5,3.,5.5\
 Bq,0,7.5,3.,5.75\Bq,0,7.5,3.,6.\Bq,0,7.5,3.25,-6.\Bq,0,7.5,3.25,-5.75\
 Bq,0,7.5,3.25,-5.5\Bq,0,7.5,3.25,-5.25\Bq,0,7.5,3.25,-5.\Bq,0,7.5,3.25
 ,-4.75\Bq,0,7.5,3.25,-4.5\Bq,0,7.5,3.25,-4.25\Bq,0,7.5,3.25,-4.\Bq,0,7
 .5,3.25,-3.75\Bq,0,7.5,3.25,-3.5\Bq,0,7.5,3.25,-3.25\Bq,0,7.5,3.25,-3.
 \Bq,0,7.5,3.25,-2.75\Bq,0,7.5,3.25,-2.5\Bq,0,7.5,3.25,-2.25\Bq,0,7.5,3
 .25,-2.\Bq,0,7.5,3.25,-1.75\Bq,0,7.5,3.25,-1.5\Bq,0,7.5,3.25,-1.25\Bq,
 0,7.5,3.25,-1.\Bq,0,7.5,3.25,-0.75\Bq,0,7.5,3.25,-0.5\Bq,0,7.5,3.25,-0
 .25\Bq,0,7.5,3.25,0.\Bq,0,7.5,3.25,0.25\Bq,0,7.5,3.25,0.5\Bq,0,7.5,3.2
 5,0.75\Bq,0,7.5,3.25,1.\Bq,0,7.5,3.25,1.25\Bq,0,7.5,3.25,1.5\Bq,0,7.5,
 3.25,1.75\Bq,0,7.5,3.25,2.\Bq,0,7.5,3.25,2.25\Bq,0,7.5,3.25,2.5\Bq,0,7
 .5,3.25,2.75\Bq,0,7.5,3.25,3.\Bq,0,7.5,3.25,3.25\Bq,0,7.5,3.25,3.5\Bq,
 0,7.5,3.25,3.75\Bq,0,7.5,3.25,4.\Bq,0,7.5,3.25,4.25\Bq,0,7.5,3.25,4.5\
 Bq,0,7.5,3.25,4.75\Bq,0,7.5,3.25,5.\Bq,0,7.5,3.25,5.25\Bq,0,7.5,3.25,5
 .5\Bq,0,7.5,3.25,5.75\Bq,0,7.5,3.25,6.\Bq,0,7.5,3.5,-6.\Bq,0,7.5,3.5,-
 5.75\Bq,0,7.5,3.5,-5.5\Bq,0,7.5,3.5,-5.25\Bq,0,7.5,3.5,-5.\Bq,0,7.5,3.
 5,-4.75\Bq,0,7.5,3.5,-4.5\Bq,0,7.5,3.5,-4.25\Bq,0,7.5,3.5,-4.\Bq,0,7.5
 ,3.5,-3.75\Bq,0,7.5,3.5,-3.5\Bq,0,7.5,3.5,-3.25\Bq,0,7.5,3.5,-3.\Bq,0,
 7.5,3.5,-2.75\Bq,0,7.5,3.5,-2.5\Bq,0,7.5,3.5,-2.25\Bq,0,7.5,3.5,-2.\Bq
 ,0,7.5,3.5,-1.75\Bq,0,7.5,3.5,-1.5\Bq,0,7.5,3.5,-1.25\Bq,0,7.5,3.5,-1.
 \Bq,0,7.5,3.5,-0.75\Bq,0,7.5,3.5,-0.5\Bq,0,7.5,3.5,-0.25\Bq,0,7.5,3.5,
 0.\Bq,0,7.5,3.5,0.25\Bq,0,7.5,3.5,0.5\Bq,0,7.5,3.5,0.75\Bq,0,7.5,3.5,1
 .\Bq,0,7.5,3.5,1.25\Bq,0,7.5,3.5,1.5\Bq,0,7.5,3.5,1.75\Bq,0,7.5,3.5,2.
 \Bq,0,7.5,3.5,2.25\Bq,0,7.5,3.5,2.5\Bq,0,7.5,3.5,2.75\Bq,0,7.5,3.5,3.\
 Bq,0,7.5,3.5,3.25\Bq,0,7.5,3.5,3.5\Bq,0,7.5,3.5,3.75\Bq,0,7.5,3.5,4.\B
 q,0,7.5,3.5,4.25\Bq,0,7.5,3.5,4.5\Bq,0,7.5,3.5,4.75\Bq,0,7.5,3.5,5.\Bq
 ,0,7.5,3.5,5.25\Bq,0,7.5,3.5,5.5\Bq,0,7.5,3.5,5.75\Bq,0,7.5,3.5,6.\Bq,
 0,7.5,3.75,-6.\Bq,0,7.5,3.75,-5.75\Bq,0,7.5,3.75,-5.5\Bq,0,7.5,3.75,-5
 .25\Bq,0,7.5,3.75,-5.\Bq,0,7.5,3.75,-4.75\Bq,0,7.5,3.75,-4.5\Bq,0,7.5,
 3.75,-4.25\Bq,0,7.5,3.75,-4.\Bq,0,7.5,3.75,-3.75\Bq,0,7.5,3.75,-3.5\Bq
 ,0,7.5,3.75,-3.25\Bq,0,7.5,3.75,-3.\Bq,0,7.5,3.75,-2.75\Bq,0,7.5,3.75,
 -2.5\Bq,0,7.5,3.75,-2.25\Bq,0,7.5,3.75,-2.\Bq,0,7.5,3.75,-1.75\Bq,0,7.
 5,3.75,-1.5\Bq,0,7.5,3.75,-1.25\Bq,0,7.5,3.75,-1.\Bq,0,7.5,3.75,-0.75\
 Bq,0,7.5,3.75,-0.5\Bq,0,7.5,3.75,-0.25\Bq,0,7.5,3.75,0.\Bq,0,7.5,3.75,
 0.25\Bq,0,7.5,3.75,0.5\Bq,0,7.5,3.75,0.75\Bq,0,7.5,3.75,1.\Bq,0,7.5,3.
 75,1.25\Bq,0,7.5,3.75,1.5\Bq,0,7.5,3.75,1.75\Bq,0,7.5,3.75,2.\Bq,0,7.5
 ,3.75,2.25\Bq,0,7.5,3.75,2.5\Bq,0,7.5,3.75,2.75\Bq,0,7.5,3.75,3.\Bq,0,
 7.5,3.75,3.25\Bq,0,7.5,3.75,3.5\Bq,0,7.5,3.75,3.75\Bq,0,7.5,3.75,4.\Bq
 ,0,7.5,3.75,4.25\Bq,0,7.5,3.75,4.5\Bq,0,7.5,3.75,4.75\Bq,0,7.5,3.75,5.
 \Bq,0,7.5,3.75,5.25\Bq,0,7.5,3.75,5.5\Bq,0,7.5,3.75,5.75\Bq,0,7.5,3.75
 ,6.\Bq,0,7.5,4.,-6.\Bq,0,7.5,4.,-5.75\Bq,0,7.5,4.,-5.5\Bq,0,7.5,4.,-5.
 25\Bq,0,7.5,4.,-5.\Bq,0,7.5,4.,-4.75\Bq,0,7.5,4.,-4.5\Bq,0,7.5,4.,-4.2
 5\Bq,0,7.5,4.,-4.\Bq,0,7.5,4.,-3.75\Bq,0,7.5,4.,-3.5\Bq,0,7.5,4.,-3.25
 \Bq,0,7.5,4.,-3.\Bq,0,7.5,4.,-2.75\Bq,0,7.5,4.,-2.5\Bq,0,7.5,4.,-2.25\
 Bq,0,7.5,4.,-2.\Bq,0,7.5,4.,-1.75\Bq,0,7.5,4.,-1.5\Bq,0,7.5,4.,-1.25\B
 q,0,7.5,4.,-1.\Bq,0,7.5,4.,-0.75\Bq,0,7.5,4.,-0.5\Bq,0,7.5,4.,-0.25\Bq
 ,0,7.5,4.,0.\Bq,0,7.5,4.,0.25\Bq,0,7.5,4.,0.5\Bq,0,7.5,4.,0.75\Bq,0,7.
 5,4.,1.\Bq,0,7.5,4.,1.25\Bq,0,7.5,4.,1.5\Bq,0,7.5,4.,1.75\Bq,0,7.5,4.,
 2.\Bq,0,7.5,4.,2.25\Bq,0,7.5,4.,2.5\Bq,0,7.5,4.,2.75\Bq,0,7.5,4.,3.\Bq
 ,0,7.5,4.,3.25\Bq,0,7.5,4.,3.5\Bq,0,7.5,4.,3.75\Bq,0,7.5,4.,4.\Bq,0,7.
 5,4.,4.25\Bq,0,7.5,4.,4.5\Bq,0,7.5,4.,4.75\Bq,0,7.5,4.,5.\Bq,0,7.5,4.,
 5.25\Bq,0,7.5,4.,5.5\Bq,0,7.5,4.,5.75\Bq,0,7.5,4.,6.\Bq,0,7.5,4.25,-6.
 \Bq,0,7.5,4.25,-5.75\Bq,0,7.5,4.25,-5.5\Bq,0,7.5,4.25,-5.25\Bq,0,7.5,4
 .25,-5.\Bq,0,7.5,4.25,-4.75\Bq,0,7.5,4.25,-4.5\Bq,0,7.5,4.25,-4.25\Bq,
 0,7.5,4.25,-4.\Bq,0,7.5,4.25,-3.75\Bq,0,7.5,4.25,-3.5\Bq,0,7.5,4.25,-3
 .25\Bq,0,7.5,4.25,-3.\Bq,0,7.5,4.25,-2.75\Bq,0,7.5,4.25,-2.5\Bq,0,7.5,
 4.25,-2.25\Bq,0,7.5,4.25,-2.\Bq,0,7.5,4.25,-1.75\Bq,0,7.5,4.25,-1.5\Bq
 ,0,7.5,4.25,-1.25\Bq,0,7.5,4.25,-1.\Bq,0,7.5,4.25,-0.75\Bq,0,7.5,4.25,
 -0.5\Bq,0,7.5,4.25,-0.25\Bq,0,7.5,4.25,0.\Bq,0,7.5,4.25,0.25\Bq,0,7.5,
 4.25,0.5\Bq,0,7.5,4.25,0.75\Bq,0,7.5,4.25,1.\Bq,0,7.5,4.25,1.25\Bq,0,7
 .5,4.25,1.5\Bq,0,7.5,4.25,1.75\Bq,0,7.5,4.25,2.\Bq,0,7.5,4.25,2.25\Bq,
 0,7.5,4.25,2.5\Bq,0,7.5,4.25,2.75\Bq,0,7.5,4.25,3.\Bq,0,7.5,4.25,3.25\
 Bq,0,7.5,4.25,3.5\Bq,0,7.5,4.25,3.75\Bq,0,7.5,4.25,4.\Bq,0,7.5,4.25,4.
 25\Bq,0,7.5,4.25,4.5\Bq,0,7.5,4.25,4.75\Bq,0,7.5,4.25,5.\Bq,0,7.5,4.25
 ,5.25\Bq,0,7.5,4.25,5.5\Bq,0,7.5,4.25,5.75\Bq,0,7.5,4.25,6.\Bq,0,7.5,4
 .5,-6.\Bq,0,7.5,4.5,-5.75\Bq,0,7.5,4.5,-5.5\Bq,0,7.5,4.5,-5.25\Bq,0,7.
 5,4.5,-5.\Bq,0,7.5,4.5,-4.75\Bq,0,7.5,4.5,-4.5\Bq,0,7.5,4.5,-4.25\Bq,0
 ,7.5,4.5,-4.\Bq,0,7.5,4.5,-3.75\Bq,0,7.5,4.5,-3.5\Bq,0,7.5,4.5,-3.25\B
 q,0,7.5,4.5,-3.\Bq,0,7.5,4.5,-2.75\Bq,0,7.5,4.5,-2.5\Bq,0,7.5,4.5,-2.2
 5\Bq,0,7.5,4.5,-2.\Bq,0,7.5,4.5,-1.75\Bq,0,7.5,4.5,-1.5\Bq,0,7.5,4.5,-
 1.25\Bq,0,7.5,4.5,-1.\Bq,0,7.5,4.5,-0.75\Bq,0,7.5,4.5,-0.5\Bq,0,7.5,4.
 5,-0.25\Bq,0,7.5,4.5,0.\Bq,0,7.5,4.5,0.25\Bq,0,7.5,4.5,0.5\Bq,0,7.5,4.
 5,0.75\Bq,0,7.5,4.5,1.\Bq,0,7.5,4.5,1.25\Bq,0,7.5,4.5,1.5\Bq,0,7.5,4.5
 ,1.75\Bq,0,7.5,4.5,2.\Bq,0,7.5,4.5,2.25\Bq,0,7.5,4.5,2.5\Bq,0,7.5,4.5,
 2.75\Bq,0,7.5,4.5,3.\Bq,0,7.5,4.5,3.25\Bq,0,7.5,4.5,3.5\Bq,0,7.5,4.5,3
 .75\Bq,0,7.5,4.5,4.\Bq,0,7.5,4.5,4.25\Bq,0,7.5,4.5,4.5\Bq,0,7.5,4.5,4.
 75\Bq,0,7.5,4.5,5.\Bq,0,7.5,4.5,5.25\Bq,0,7.5,4.5,5.5\Bq,0,7.5,4.5,5.7
 5\Bq,0,7.5,4.5,6.\Bq,0,7.5,4.75,-6.\Bq,0,7.5,4.75,-5.75\Bq,0,7.5,4.75,
 -5.5\Bq,0,7.5,4.75,-5.25\Bq,0,7.5,4.75,-5.\Bq,0,7.5,4.75,-4.75\Bq,0,7.
 5,4.75,-4.5\Bq,0,7.5,4.75,-4.25\Bq,0,7.5,4.75,-4.\Bq,0,7.5,4.75,-3.75\
 Bq,0,7.5,4.75,-3.5\Bq,0,7.5,4.75,-3.25\Bq,0,7.5,4.75,-3.\Bq,0,7.5,4.75
 ,-2.75\Bq,0,7.5,4.75,-2.5\Bq,0,7.5,4.75,-2.25\Bq,0,7.5,4.75,-2.\Bq,0,7
 .5,4.75,-1.75\Bq,0,7.5,4.75,-1.5\Bq,0,7.5,4.75,-1.25\Bq,0,7.5,4.75,-1.
 \Bq,0,7.5,4.75,-0.75\Bq,0,7.5,4.75,-0.5\Bq,0,7.5,4.75,-0.25\Bq,0,7.5,4
 .75,0.\Bq,0,7.5,4.75,0.25\Bq,0,7.5,4.75,0.5\Bq,0,7.5,4.75,0.75\Bq,0,7.
 5,4.75,1.\Bq,0,7.5,4.75,1.25\Bq,0,7.5,4.75,1.5\Bq,0,7.5,4.75,1.75\Bq,0
 ,7.5,4.75,2.\Bq,0,7.5,4.75,2.25\Bq,0,7.5,4.75,2.5\Bq,0,7.5,4.75,2.75\B
 q,0,7.5,4.75,3.\Bq,0,7.5,4.75,3.25\Bq,0,7.5,4.75,3.5\Bq,0,7.5,4.75,3.7
 5\Bq,0,7.5,4.75,4.\Bq,0,7.5,4.75,4.25\Bq,0,7.5,4.75,4.5\Bq,0,7.5,4.75,
 4.75\Bq,0,7.5,4.75,5.\Bq,0,7.5,4.75,5.25\Bq,0,7.5,4.75,5.5\Bq,0,7.5,4.
 75,5.75\Bq,0,7.5,4.75,6.\Bq,0,7.5,5.,-6.\Bq,0,7.5,5.,-5.75\Bq,0,7.5,5.
 ,-5.5\Bq,0,7.5,5.,-5.25\Bq,0,7.5,5.,-5.\Bq,0,7.5,5.,-4.75\Bq,0,7.5,5.,
 -4.5\Bq,0,7.5,5.,-4.25\Bq,0,7.5,5.,-4.\Bq,0,7.5,5.,-3.75\Bq,0,7.5,5.,-
 3.5\Bq,0,7.5,5.,-3.25\Bq,0,7.5,5.,-3.\Bq,0,7.5,5.,-2.75\Bq,0,7.5,5.,-2
 .5\Bq,0,7.5,5.,-2.25\Bq,0,7.5,5.,-2.\Bq,0,7.5,5.,-1.75\Bq,0,7.5,5.,-1.
 5\Bq,0,7.5,5.,-1.25\Bq,0,7.5,5.,-1.\Bq,0,7.5,5.,-0.75\Bq,0,7.5,5.,-0.5
 \Bq,0,7.5,5.,-0.25\Bq,0,7.5,5.,0.\Bq,0,7.5,5.,0.25\Bq,0,7.5,5.,0.5\Bq,
 0,7.5,5.,0.75\Bq,0,7.5,5.,1.\Bq,0,7.5,5.,1.25\Bq,0,7.5,5.,1.5\Bq,0,7.5
 ,5.,1.75\Bq,0,7.5,5.,2.\Bq,0,7.5,5.,2.25\Bq,0,7.5,5.,2.5\Bq,0,7.5,5.,2
 .75\Bq,0,7.5,5.,3.\Bq,0,7.5,5.,3.25\Bq,0,7.5,5.,3.5\Bq,0,7.5,5.,3.75\B
 q,0,7.5,5.,4.\Bq,0,7.5,5.,4.25\Bq,0,7.5,5.,4.5\Bq,0,7.5,5.,4.75\Bq,0,7
 .5,5.,5.\Bq,0,7.5,5.,5.25\Bq,0,7.5,5.,5.5\Bq,0,7.5,5.,5.75\Bq,0,7.5,5.
 ,6.\Bq,0,7.5,5.25,-6.\Bq,0,7.5,5.25,-5.75\Bq,0,7.5,5.25,-5.5\Bq,0,7.5,
 5.25,-5.25\Bq,0,7.5,5.25,-5.\Bq,0,7.5,5.25,-4.75\Bq,0,7.5,5.25,-4.5\Bq
 ,0,7.5,5.25,-4.25\Bq,0,7.5,5.25,-4.\Bq,0,7.5,5.25,-3.75\Bq,0,7.5,5.25,
 -3.5\Bq,0,7.5,5.25,-3.25\Bq,0,7.5,5.25,-3.\Bq,0,7.5,5.25,-2.75\Bq,0,7.
 5,5.25,-2.5\Bq,0,7.5,5.25,-2.25\Bq,0,7.5,5.25,-2.\Bq,0,7.5,5.25,-1.75\
 Bq,0,7.5,5.25,-1.5\Bq,0,7.5,5.25,-1.25\Bq,0,7.5,5.25,-1.\Bq,0,7.5,5.25
 ,-0.75\Bq,0,7.5,5.25,-0.5\Bq,0,7.5,5.25,-0.25\Bq,0,7.5,5.25,0.\Bq,0,7.
 5,5.25,0.25\Bq,0,7.5,5.25,0.5\Bq,0,7.5,5.25,0.75\Bq,0,7.5,5.25,1.\Bq,0
 ,7.5,5.25,1.25\Bq,0,7.5,5.25,1.5\Bq,0,7.5,5.25,1.75\Bq,0,7.5,5.25,2.\B
 q,0,7.5,5.25,2.25\Bq,0,7.5,5.25,2.5\Bq,0,7.5,5.25,2.75\Bq,0,7.5,5.25,3
 .\Bq,0,7.5,5.25,3.25\Bq,0,7.5,5.25,3.5\Bq,0,7.5,5.25,3.75\Bq,0,7.5,5.2
 5,4.\Bq,0,7.5,5.25,4.25\Bq,0,7.5,5.25,4.5\Bq,0,7.5,5.25,4.75\Bq,0,7.5,
 5.25,5.\Bq,0,7.5,5.25,5.25\Bq,0,7.5,5.25,5.5\Bq,0,7.5,5.25,5.75\Bq,0,7
 .5,5.25,6.\Bq,0,7.5,5.5,-6.\Bq,0,7.5,5.5,-5.75\Bq,0,7.5,5.5,-5.5\Bq,0,
 7.5,5.5,-5.25\Bq,0,7.5,5.5,-5.\Bq,0,7.5,5.5,-4.75\Bq,0,7.5,5.5,-4.5\Bq
 ,0,7.5,5.5,-4.25\Bq,0,7.5,5.5,-4.\Bq,0,7.5,5.5,-3.75\Bq,0,7.5,5.5,-3.5
 \Bq,0,7.5,5.5,-3.25\Bq,0,7.5,5.5,-3.\Bq,0,7.5,5.5,-2.75\Bq,0,7.5,5.5,-
 2.5\Bq,0,7.5,5.5,-2.25\Bq,0,7.5,5.5,-2.\Bq,0,7.5,5.5,-1.75\Bq,0,7.5,5.
 5,-1.5\Bq,0,7.5,5.5,-1.25\Bq,0,7.5,5.5,-1.\Bq,0,7.5,5.5,-0.75\Bq,0,7.5
 ,5.5,-0.5\Bq,0,7.5,5.5,-0.25\Bq,0,7.5,5.5,0.\Bq,0,7.5,5.5,0.25\Bq,0,7.
 5,5.5,0.5\Bq,0,7.5,5.5,0.75\Bq,0,7.5,5.5,1.\Bq,0,7.5,5.5,1.25\Bq,0,7.5
 ,5.5,1.5\Bq,0,7.5,5.5,1.75\Bq,0,7.5,5.5,2.\Bq,0,7.5,5.5,2.25\Bq,0,7.5,
 5.5,2.5\Bq,0,7.5,5.5,2.75\Bq,0,7.5,5.5,3.\Bq,0,7.5,5.5,3.25\Bq,0,7.5,5
 .5,3.5\Bq,0,7.5,5.5,3.75\Bq,0,7.5,5.5,4.\Bq,0,7.5,5.5,4.25\Bq,0,7.5,5.
 5,4.5\Bq,0,7.5,5.5,4.75\Bq,0,7.5,5.5,5.\Bq,0,7.5,5.5,5.25\Bq,0,7.5,5.5
 ,5.5\Bq,0,7.5,5.5,5.75\Bq,0,7.5,5.5,6.\Bq,0,7.5,5.75,-6.\Bq,0,7.5,5.75
 ,-5.75\Bq,0,7.5,5.75,-5.5\Bq,0,7.5,5.75,-5.25\Bq,0,7.5,5.75,-5.\Bq,0,7
 .5,5.75,-4.75\Bq,0,7.5,5.75,-4.5\Bq,0,7.5,5.75,-4.25\Bq,0,7.5,5.75,-4.
 \Bq,0,7.5,5.75,-3.75\Bq,0,7.5,5.75,-3.5\Bq,0,7.5,5.75,-3.25\Bq,0,7.5,5
 .75,-3.\Bq,0,7.5,5.75,-2.75\Bq,0,7.5,5.75,-2.5\Bq,0,7.5,5.75,-2.25\Bq,
 0,7.5,5.75,-2.\Bq,0,7.5,5.75,-1.75\Bq,0,7.5,5.75,-1.5\Bq,0,7.5,5.75,-1
 .25\Bq,0,7.5,5.75,-1.\Bq,0,7.5,5.75,-0.75\Bq,0,7.5,5.75,-0.5\Bq,0,7.5,
 5.75,-0.25\Bq,0,7.5,5.75,0.\Bq,0,7.5,5.75,0.25\Bq,0,7.5,5.75,0.5\Bq,0,
 7.5,5.75,0.75\Bq,0,7.5,5.75,1.\Bq,0,7.5,5.75,1.25\Bq,0,7.5,5.75,1.5\Bq
 ,0,7.5,5.75,1.75\Bq,0,7.5,5.75,2.\Bq,0,7.5,5.75,2.25\Bq,0,7.5,5.75,2.5
 \Bq,0,7.5,5.75,2.75\Bq,0,7.5,5.75,3.\Bq,0,7.5,5.75,3.25\Bq,0,7.5,5.75,
 3.5\Bq,0,7.5,5.75,3.75\Bq,0,7.5,5.75,4.\Bq,0,7.5,5.75,4.25\Bq,0,7.5,5.
 75,4.5\Bq,0,7.5,5.75,4.75\Bq,0,7.5,5.75,5.\Bq,0,7.5,5.75,5.25\Bq,0,7.5
 ,5.75,5.5\Bq,0,7.5,5.75,5.75\Bq,0,7.5,5.75,6.\Bq,0,7.5,6.,-6.\Bq,0,7.5
 ,6.,-5.75\Bq,0,7.5,6.,-5.5\Bq,0,7.5,6.,-5.25\Bq,0,7.5,6.,-5.\Bq,0,7.5,
 6.,-4.75\Bq,0,7.5,6.,-4.5\Bq,0,7.5,6.,-4.25\Bq,0,7.5,6.,-4.\Bq,0,7.5,6
 .,-3.75\Bq,0,7.5,6.,-3.5\Bq,0,7.5,6.,-3.25\Bq,0,7.5,6.,-3.\Bq,0,7.5,6.
 ,-2.75\Bq,0,7.5,6.,-2.5\Bq,0,7.5,6.,-2.25\Bq,0,7.5,6.,-2.\Bq,0,7.5,6.,
 -1.75\Bq,0,7.5,6.,-1.5\Bq,0,7.5,6.,-1.25\Bq,0,7.5,6.,-1.\Bq,0,7.5,6.,-
 0.75\Bq,0,7.5,6.,-0.5\Bq,0,7.5,6.,-0.25\Bq,0,7.5,6.,0.\Bq,0,7.5,6.,0.2
 5\Bq,0,7.5,6.,0.5\Bq,0,7.5,6.,0.75\Bq,0,7.5,6.,1.\Bq,0,7.5,6.,1.25\Bq,
 0,7.5,6.,1.5\Bq,0,7.5,6.,1.75\Bq,0,7.5,6.,2.\Bq,0,7.5,6.,2.25\Bq,0,7.5
 ,6.,2.5\Bq,0,7.5,6.,2.75\Bq,0,7.5,6.,3.\Bq,0,7.5,6.,3.25\Bq,0,7.5,6.,3
 .5\Bq,0,7.5,6.,3.75\Bq,0,7.5,6.,4.\Bq,0,7.5,6.,4.25\Bq,0,7.5,6.,4.5\Bq
 ,0,7.5,6.,4.75\Bq,0,7.5,6.,5.\Bq,0,7.5,6.,5.25\Bq,0,7.5,6.,5.5\Bq,0,7.
 5,6.,5.75\Bq,0,7.5,6.,6.\Bq,0,7.5,6.25,-6.\Bq,0,7.5,6.25,-5.75\Bq,0,7.
 5,6.25,-5.5\Bq,0,7.5,6.25,-5.25\Bq,0,7.5,6.25,-5.\Bq,0,7.5,6.25,-4.75\
 Bq,0,7.5,6.25,-4.5\Bq,0,7.5,6.25,-4.25\Bq,0,7.5,6.25,-4.\Bq,0,7.5,6.25
 ,-3.75\Bq,0,7.5,6.25,-3.5\Bq,0,7.5,6.25,-3.25\Bq,0,7.5,6.25,-3.\Bq,0,7
 .5,6.25,-2.75\Bq,0,7.5,6.25,-2.5\Bq,0,7.5,6.25,-2.25\Bq,0,7.5,6.25,-2.
 \Bq,0,7.5,6.25,-1.75\Bq,0,7.5,6.25,-1.5\Bq,0,7.5,6.25,-1.25\Bq,0,7.5,6
 .25,-1.\Bq,0,7.5,6.25,-0.75\Bq,0,7.5,6.25,-0.5\Bq,0,7.5,6.25,-0.25\Bq,
 0,7.5,6.25,0.\Bq,0,7.5,6.25,0.25\Bq,0,7.5,6.25,0.5\Bq,0,7.5,6.25,0.75\
 Bq,0,7.5,6.25,1.\Bq,0,7.5,6.25,1.25\Bq,0,7.5,6.25,1.5\Bq,0,7.5,6.25,1.
 75\Bq,0,7.5,6.25,2.\Bq,0,7.5,6.25,2.25\Bq,0,7.5,6.25,2.5\Bq,0,7.5,6.25
 ,2.75\Bq,0,7.5,6.25,3.\Bq,0,7.5,6.25,3.25\Bq,0,7.5,6.25,3.5\Bq,0,7.5,6
 .25,3.75\Bq,0,7.5,6.25,4.\Bq,0,7.5,6.25,4.25\Bq,0,7.5,6.25,4.5\Bq,0,7.
 5,6.25,4.75\Bq,0,7.5,6.25,5.\Bq,0,7.5,6.25,5.25\Bq,0,7.5,6.25,5.5\Bq,0
 ,7.5,6.25,5.75\Bq,0,7.5,6.25,6.\Bq,0,7.5,6.5,-6.\Bq,0,7.5,6.5,-5.75\Bq
 ,0,7.5,6.5,-5.5\Bq,0,7.5,6.5,-5.25\Bq,0,7.5,6.5,-5.\Bq,0,7.5,6.5,-4.75
 \Bq,0,7.5,6.5,-4.5\Bq,0,7.5,6.5,-4.25\Bq,0,7.5,6.5,-4.\Bq,0,7.5,6.5,-3
 .75\Bq,0,7.5,6.5,-3.5\Bq,0,7.5,6.5,-3.25\Bq,0,7.5,6.5,-3.\Bq,0,7.5,6.5
 ,-2.75\Bq,0,7.5,6.5,-2.5\Bq,0,7.5,6.5,-2.25\Bq,0,7.5,6.5,-2.\Bq,0,7.5,
 6.5,-1.75\Bq,0,7.5,6.5,-1.5\Bq,0,7.5,6.5,-1.25\Bq,0,7.5,6.5,-1.\Bq,0,7
 .5,6.5,-0.75\Bq,0,7.5,6.5,-0.5\Bq,0,7.5,6.5,-0.25\Bq,0,7.5,6.5,0.\Bq,0
 ,7.5,6.5,0.25\Bq,0,7.5,6.5,0.5\Bq,0,7.5,6.5,0.75\Bq,0,7.5,6.5,1.\Bq,0,
 7.5,6.5,1.25\Bq,0,7.5,6.5,1.5\Bq,0,7.5,6.5,1.75\Bq,0,7.5,6.5,2.\Bq,0,7
 .5,6.5,2.25\Bq,0,7.5,6.5,2.5\Bq,0,7.5,6.5,2.75\Bq,0,7.5,6.5,3.\Bq,0,7.
 5,6.5,3.25\Bq,0,7.5,6.5,3.5\Bq,0,7.5,6.5,3.75\Bq,0,7.5,6.5,4.\Bq,0,7.5
 ,6.5,4.25\Bq,0,7.5,6.5,4.5\Bq,0,7.5,6.5,4.75\Bq,0,7.5,6.5,5.\Bq,0,7.5,
 6.5,5.25\Bq,0,7.5,6.5,5.5\Bq,0,7.5,6.5,5.75\Bq,0,7.5,6.5,6.\\Version=E
 M64M-G16RevB.01\HF=-425.1559001\RMSD=1.891e-09\Dipole=-0.2634001,-0.19
 75552,0.000006\Quadrupole=3.0578182,2.4247715,-5.4825897,-0.3959082,-0
 .0003004,-0.000005\PG=C01 [X(C11H10)]\\@


 AN AIRPLANE IS A COLLECTION OF SPARE PARTS
 FLYING IN CLOSE FORMATION.
 Job cpu time:       0 days  0 hours  2 minutes 21.5 seconds.
 Elapsed time:       0 days  0 hours  0 minutes 37.6 seconds.
 File lengths (MBytes):  RWF=     41 Int=      0 D2E=      0 Chk=     21 Scr=      1
 Normal termination of Gaussian 16 at Sun Jun  6 18:20:19 2021.
