 Entering Gaussian System, Link 0=g16
 Initial command:
 /home/wangzhe/g16/l1.exe "/home/wangzhe/g16/Scratch/Gau-60.inp" -scrdir="/home/wangzhe/g16/Scratch/"
 Default is to use a total of   8 processors:
                                8 via shared-memory
                                1 via Linda
 Entering Link 1 = /home/wangzhe/g16/l1.exe PID=        63.
  
 Copyright (c) 1988-2017, Gaussian, Inc.  All Rights Reserved.
  
 This is part of the Gaussian(R) 16 program.  It is based on
 the Gaussian(R) 09 system (copyright 2009, Gaussian, Inc.),
 the Gaussian(R) 03 system (copyright 2003, Gaussian, Inc.),
 the Gaussian(R) 98 system (copyright 1998, Gaussian, Inc.),
 the Gaussian(R) 94 system (copyright 1995, Gaussian, Inc.),
 the Gaussian 92(TM) system (copyright 1992, Gaussian, Inc.),
 the Gaussian 90(TM) system (copyright 1990, Gaussian, Inc.),
 the Gaussian 88(TM) system (copyright 1988, Gaussian, Inc.),
 the Gaussian 86(TM) system (copyright 1986, Carnegie Mellon
 University), and the Gaussian 82(TM) system (copyright 1983,
 Carnegie Mellon University). Gaussian is a federally registered
 trademark of Gaussian, Inc.
  
 This software contains proprietary and confidential information,
 including trade secrets, belonging to Gaussian, Inc.
  
 This software is provided under written license and may be
 used, copied, transmitted, or stored only in accord with that
 written license.
  
 The following legend is applicable only to US Government
 contracts under FAR:
  
                    RESTRICTED RIGHTS LEGEND
  
 Use, reproduction and disclosure by the US Government is
 subject to restrictions as set forth in subparagraphs (a)
 and (c) of the Commercial Computer Software - Restricted
 Rights clause in FAR 52.227-19.
  
 Gaussian, Inc.
 340 Quinnipiac St., Bldg. 40, Wallingford CT 06492
  
  
 ---------------------------------------------------------------
 Warning -- This program may not be used in any manner that
 competes with the business of Gaussian, Inc. or will provide
 assistance to any competitor of Gaussian, Inc.  The licensee
 of this program is prohibited from giving any competitor of
 Gaussian, Inc. access to this program.  By using this program,
 the user acknowledges that Gaussian, Inc. is engaged in the
 business of creating and licensing software in the field of
 computational chemistry and represents and warrants to the
 licensee that it is not a competitor of Gaussian, Inc. and that
 it will not use this program in any manner prohibited above.
 ---------------------------------------------------------------
  

 Cite this work as:
 Gaussian 16, Revision B.01,
 M. J. Frisch, G. W. Trucks, H. B. Schlegel, G. E. Scuseria, 
 M. A. Robb, J. R. Cheeseman, G. Scalmani, V. Barone, 
 G. A. Petersson, H. Nakatsuji, X. Li, M. Caricato, A. V. Marenich, 
 J. Bloino, B. G. Janesko, R. Gomperts, B. Mennucci, H. P. Hratchian, 
 J. V. Ortiz, A. F. Izmaylov, J. L. Sonnenberg, D. Williams-Young, 
 F. Ding, F. Lipparini, F. Egidi, J. Goings, B. Peng, A. Petrone, 
 T. Henderson, D. Ranasinghe, V. G. Zakrzewski, J. Gao, N. Rega, 
 G. Zheng, W. Liang, M. Hada, M. Ehara, K. Toyota, R. Fukuda, 
 J. Hasegawa, M. Ishida, T. Nakajima, Y. Honda, O. Kitao, H. Nakai, 
 T. Vreven, K. Throssell, J. A. Montgomery, Jr., J. E. Peralta, 
 F. Ogliaro, M. J. Bearpark, J. J. Heyd, E. N. Brothers, K. N. Kudin, 
 V. N. Staroverov, T. A. Keith, R. Kobayashi, J. Normand, 
 K. Raghavachari, A. P. Rendell, J. C. Burant, S. S. Iyengar, 
 J. Tomasi, M. Cossi, J. M. Millam, M. Klene, C. Adamo, R. Cammi, 
 J. W. Ochterski, R. L. Martin, K. Morokuma, O. Farkas, 
 J. B. Foresman, and D. J. Fox, Gaussian, Inc., Wallingford CT, 2016.
 
 ******************************************
 Gaussian 16:  ES64L-G16RevB.01 20-Dec-2017
                25-May-2021 
 ******************************************
 %nprocshared=8
 Will use up to    8 processors via shared memory.
 %mem=10GB
 %chk=4cpp.chk
 ---------------------------
 #p opt freq rb3lyp/6-31g(d)
 ---------------------------
 1/18=20,19=15,26=3,38=1/1,3;
 2/9=110,12=2,17=6,18=5,40=1/2;
 3/5=1,6=6,7=1,11=2,25=1,30=1,71=1,74=-5,116=1/1,2,3;
 4//1;
 5/5=2,38=5/2;
 6/7=2,8=2,9=2,10=2,28=1/1;
 7//1,2,3,16;
 1/18=20,19=15,26=3/3(2);
 2/9=110/2;
 99//99;
 2/9=110/2;
 3/5=1,6=6,7=1,11=2,25=1,30=1,71=1,74=-5,116=1/1,2,3;
 4/5=5,16=3,69=1/1;
 5/5=2,38=5/2;
 7//1,2,3,16;
 1/18=20,19=15,26=3/3(-5);
 2/9=110/2;
 6/7=2,8=2,9=2,10=2,19=2,28=1/1;
 99/9=1/99;
 Leave Link    1 at Tue May 25 22:54:55 2021, MaxMem=  1342177280 cpu:               0.3 elap:               0.1
 (Enter /home/wangzhe/g16/l101.exe)
 -------------------
 Title Card Required
 -------------------
 Symbolic Z-matrix:
 Charge =  0 Multiplicity = 1
 C                     1.463     0.757    -1.681 
 C                     0.375     2.736    -3.333 
 C                     0.247     1.365    -1.334 
 C                     2.31      1.543    -2.477 
 C                     1.764     2.536    -3.307 
 C                    -0.299     2.356    -2.162 
 H                    -0.423     0.915    -0.606 
 H                     3.336     1.241    -2.67 
 H                     2.402     2.94     -4.089 
 H                    -1.348     2.596    -2.011 
 C                     1.546    -0.757    -1.736 
 C                     0.458    -2.736    -3.388 
 C                     2.345    -1.365    -2.716 
 C                     0.48     -1.543    -1.272 
 C                    -0.066    -2.536    -2.102 
 C                     1.8      -2.356    -3.545 
 H                     3.279    -0.915    -3.044 
 H                    -0.102    -1.241    -0.405 
 H                    -1.037    -2.94     -1.825 
 H                     2.354    -2.596    -4.448 
 C                    -0.458    -2.736    -4.598 
 C                    -1.546    -0.757    -6.251 
 C                    -1.8      -2.356    -4.442 
 C                     0.066    -2.536    -5.884 
 C                    -0.48     -1.543    -6.714 
 C                    -2.345    -1.365    -5.27 
 H                    -2.354    -2.596    -3.538 
 H                     1.037    -2.94     -6.162 
 H                     0.102    -1.241    -7.581 
 H                    -3.279    -0.915    -4.943 
 C                    -1.463     0.757    -6.305 
 C                    -0.375     2.736    -4.653 
 C                    -2.31      1.543    -5.509 
 C                    -0.247     1.365    -6.652 
 C                     0.299     2.356    -5.824 
 C                    -1.764     2.536    -4.679 
 H                    -3.336     1.241    -5.317 
 H                     0.423     0.915    -7.38 
 H                     1.348     2.596    -5.976 
 H                    -2.402     2.94     -3.898 
 
 ITRead=  0  0  0  0  0  0  0  0  0  0  0  0  0  0  0  0  0  0  0  0
 ITRead=  0  0  0  0  0  0  0  0  0  0  0  0  0  0  0  0  0  0  0  0
 MicOpt= -1 -1 -1 -1 -1 -1 -1 -1 -1 -1 -1 -1 -1 -1 -1 -1 -1 -1 -1 -1
 MicOpt= -1 -1 -1 -1 -1 -1 -1 -1 -1 -1 -1 -1 -1 -1 -1 -1 -1 -1 -1 -1
 NAtoms=     40 NQM=       40 NQMF=       0 NMMI=      0 NMMIF=      0
                NMic=       0 NMicF=      0.
                    Isotopes and Nuclear Properties:
 (Nuclear quadrupole moments (NQMom) in fm**2, nuclear magnetic moments (NMagM)
  in nuclear magnetons)

  Atom         1           2           3           4           5           6           7           8           9          10
 IAtWgt=          12          12          12          12          12          12           1           1           1           1
 AtmWgt=  12.0000000  12.0000000  12.0000000  12.0000000  12.0000000  12.0000000   1.0078250   1.0078250   1.0078250   1.0078250
 NucSpn=           0           0           0           0           0           0           1           1           1           1
 AtZEff=  -0.0000000  -0.0000000  -0.0000000  -0.0000000  -0.0000000  -0.0000000  -0.0000000  -0.0000000  -0.0000000  -0.0000000
 NQMom=    0.0000000   0.0000000   0.0000000   0.0000000   0.0000000   0.0000000   0.0000000   0.0000000   0.0000000   0.0000000
 NMagM=    0.0000000   0.0000000   0.0000000   0.0000000   0.0000000   0.0000000   2.7928460   2.7928460   2.7928460   2.7928460
 AtZNuc=   6.0000000   6.0000000   6.0000000   6.0000000   6.0000000   6.0000000   1.0000000   1.0000000   1.0000000   1.0000000

  Atom        11          12          13          14          15          16          17          18          19          20
 IAtWgt=          12          12          12          12          12          12           1           1           1           1
 AtmWgt=  12.0000000  12.0000000  12.0000000  12.0000000  12.0000000  12.0000000   1.0078250   1.0078250   1.0078250   1.0078250
 NucSpn=           0           0           0           0           0           0           1           1           1           1
 AtZEff=  -0.0000000  -0.0000000  -0.0000000  -0.0000000  -0.0000000  -0.0000000  -0.0000000  -0.0000000  -0.0000000  -0.0000000
 NQMom=    0.0000000   0.0000000   0.0000000   0.0000000   0.0000000   0.0000000   0.0000000   0.0000000   0.0000000   0.0000000
 NMagM=    0.0000000   0.0000000   0.0000000   0.0000000   0.0000000   0.0000000   2.7928460   2.7928460   2.7928460   2.7928460
 AtZNuc=   6.0000000   6.0000000   6.0000000   6.0000000   6.0000000   6.0000000   1.0000000   1.0000000   1.0000000   1.0000000

  Atom        21          22          23          24          25          26          27          28          29          30
 IAtWgt=          12          12          12          12          12          12           1           1           1           1
 AtmWgt=  12.0000000  12.0000000  12.0000000  12.0000000  12.0000000  12.0000000   1.0078250   1.0078250   1.0078250   1.0078250
 NucSpn=           0           0           0           0           0           0           1           1           1           1
 AtZEff=  -0.0000000  -0.0000000  -0.0000000  -0.0000000  -0.0000000  -0.0000000  -0.0000000  -0.0000000  -0.0000000  -0.0000000
 NQMom=    0.0000000   0.0000000   0.0000000   0.0000000   0.0000000   0.0000000   0.0000000   0.0000000   0.0000000   0.0000000
 NMagM=    0.0000000   0.0000000   0.0000000   0.0000000   0.0000000   0.0000000   2.7928460   2.7928460   2.7928460   2.7928460
 AtZNuc=   6.0000000   6.0000000   6.0000000   6.0000000   6.0000000   6.0000000   1.0000000   1.0000000   1.0000000   1.0000000

  Atom        31          32          33          34          35          36          37          38          39          40
 IAtWgt=          12          12          12          12          12          12           1           1           1           1
 AtmWgt=  12.0000000  12.0000000  12.0000000  12.0000000  12.0000000  12.0000000   1.0078250   1.0078250   1.0078250   1.0078250
 NucSpn=           0           0           0           0           0           0           1           1           1           1
 AtZEff=  -0.0000000  -0.0000000  -0.0000000  -0.0000000  -0.0000000  -0.0000000  -0.0000000  -0.0000000  -0.0000000  -0.0000000
 NQMom=    0.0000000   0.0000000   0.0000000   0.0000000   0.0000000   0.0000000   0.0000000   0.0000000   0.0000000   0.0000000
 NMagM=    0.0000000   0.0000000   0.0000000   0.0000000   0.0000000   0.0000000   2.7928460   2.7928460   2.7928460   2.7928460
 AtZNuc=   6.0000000   6.0000000   6.0000000   6.0000000   6.0000000   6.0000000   1.0000000   1.0000000   1.0000000   1.0000000
 Leave Link  101 at Tue May 25 22:54:56 2021, MaxMem=  1342177280 cpu:               2.6 elap:               0.4
 (Enter /home/wangzhe/g16/l103.exe)

 GradGradGradGradGradGradGradGradGradGradGradGradGradGradGradGradGradGrad
 Berny optimization.
 Initialization pass.
                           ----------------------------
                           !    Initial Parameters    !
                           ! (Angstroms and Degrees)  !
 --------------------------                            --------------------------
 ! Name  Definition              Value          Derivative Info.                !
 --------------------------------------------------------------------------------
 ! R1    R(1,3)                  1.4031         estimate D2E/DX2                !
 ! R2    R(1,4)                  1.4031         estimate D2E/DX2                !
 ! R3    R(1,11)                 1.5173         estimate D2E/DX2                !
 ! R4    R(2,5)                  1.4036         estimate D2E/DX2                !
 ! R5    R(2,6)                  1.4035         estimate D2E/DX2                !
 ! R6    R(2,32)                 1.5182         estimate D2E/DX2                !
 ! R7    R(3,6)                  1.4021         estimate D2E/DX2                !
 ! R8    R(3,7)                  1.0869         estimate D2E/DX2                !
 ! R9    R(4,5)                  1.4047         estimate D2E/DX2                !
 ! R10   R(4,8)                  1.0868         estimate D2E/DX2                !
 ! R11   R(5,9)                  1.0871         estimate D2E/DX2                !
 ! R12   R(6,10)                 1.0866         estimate D2E/DX2                !
 ! R13   R(11,13)                1.403          estimate D2E/DX2                !
 ! R14   R(11,14)                1.4034         estimate D2E/DX2                !
 ! R15   R(12,15)                1.403          estimate D2E/DX2                !
 ! R16   R(12,16)                1.4036         estimate D2E/DX2                !
 ! R17   R(12,21)                1.5176         estimate D2E/DX2                !
 ! R18   R(13,16)                1.4023         estimate D2E/DX2                !
 ! R19   R(13,17)                1.0874         estimate D2E/DX2                !
 ! R20   R(14,15)                1.4047         estimate D2E/DX2                !
 ! R21   R(14,18)                1.087          estimate D2E/DX2                !
 ! R22   R(15,19)                1.0876         estimate D2E/DX2                !
 ! R23   R(16,20)                1.0862         estimate D2E/DX2                !
 ! R24   R(21,23)                1.4035         estimate D2E/DX2                !
 ! R25   R(21,24)                1.403          estimate D2E/DX2                !
 ! R26   R(22,25)                1.403          estimate D2E/DX2                !
 ! R27   R(22,26)                1.4037         estimate D2E/DX2                !
 ! R28   R(22,31)                1.5172         estimate D2E/DX2                !
 ! R29   R(23,26)                1.4017         estimate D2E/DX2                !
 ! R30   R(23,27)                1.0871         estimate D2E/DX2                !
 ! R31   R(24,25)                1.4047         estimate D2E/DX2                !
 ! R32   R(24,28)                1.0878         estimate D2E/DX2                !
 ! R33   R(25,29)                1.087          estimate D2E/DX2                !
 ! R34   R(26,30)                1.0871         estimate D2E/DX2                !
 ! R35   R(31,33)                1.4031         estimate D2E/DX2                !
 ! R36   R(31,34)                1.4031         estimate D2E/DX2                !
 ! R37   R(32,35)                1.4035         estimate D2E/DX2                !
 ! R38   R(32,36)                1.4036         estimate D2E/DX2                !
 ! R39   R(33,36)                1.4047         estimate D2E/DX2                !
 ! R40   R(33,37)                1.0866         estimate D2E/DX2                !
 ! R41   R(34,35)                1.4021         estimate D2E/DX2                !
 ! R42   R(34,38)                1.0869         estimate D2E/DX2                !
 ! R43   R(35,39)                1.0868         estimate D2E/DX2                !
 ! R44   R(36,40)                1.0864         estimate D2E/DX2                !
 ! A1    A(3,1,4)              114.8792         estimate D2E/DX2                !
 ! A2    A(3,1,11)             119.2592         estimate D2E/DX2                !
 ! A3    A(4,1,11)             120.3563         estimate D2E/DX2                !
 ! A4    A(5,2,6)              114.9102         estimate D2E/DX2                !
 ! A5    A(5,2,32)             120.3306         estimate D2E/DX2                !
 ! A6    A(6,2,32)             119.2207         estimate D2E/DX2                !
 ! A7    A(1,3,6)              119.8495         estimate D2E/DX2                !
 ! A8    A(1,3,7)              121.3631         estimate D2E/DX2                !
 ! A9    A(6,3,7)              116.6237         estimate D2E/DX2                !
 ! A10   A(1,4,5)              119.7735         estimate D2E/DX2                !
 ! A11   A(1,4,8)              120.9946         estimate D2E/DX2                !
 ! A12   A(5,4,8)              117.2885         estimate D2E/DX2                !
 ! A13   A(2,5,4)              119.759          estimate D2E/DX2                !
 ! A14   A(2,5,9)              120.9648         estimate D2E/DX2                !
 ! A15   A(4,5,9)              117.3644         estimate D2E/DX2                !
 ! A16   A(2,6,3)              119.8065         estimate D2E/DX2                !
 ! A17   A(2,6,10)             121.3133         estimate D2E/DX2                !
 ! A18   A(3,6,10)             116.7424         estimate D2E/DX2                !
 ! A19   A(1,11,13)            119.2676         estimate D2E/DX2                !
 ! A20   A(1,11,14)            120.3536         estimate D2E/DX2                !
 ! A21   A(13,11,14)           114.886          estimate D2E/DX2                !
 ! A22   A(15,12,16)           114.9003         estimate D2E/DX2                !
 ! A23   A(15,12,21)           120.3573         estimate D2E/DX2                !
 ! A24   A(16,12,21)           119.2037         estimate D2E/DX2                !
 ! A25   A(11,13,16)           119.8585         estimate D2E/DX2                !
 ! A26   A(11,13,17)           121.3661         estimate D2E/DX2                !
 ! A27   A(16,13,17)           116.6132         estimate D2E/DX2                !
 ! A28   A(11,14,15)           119.7247         estimate D2E/DX2                !
 ! A29   A(11,14,18)           120.9842         estimate D2E/DX2                !
 ! A30   A(15,14,18)           117.3597         estimate D2E/DX2                !
 ! A31   A(12,15,14)           119.8161         estimate D2E/DX2                !
 ! A32   A(12,15,19)           120.9284         estimate D2E/DX2                !
 ! A33   A(14,15,19)           117.3326         estimate D2E/DX2                !
 ! A34   A(12,16,13)           119.7894         estimate D2E/DX2                !
 ! A35   A(12,16,20)           121.3867         estimate D2E/DX2                !
 ! A36   A(13,16,20)           116.7039         estimate D2E/DX2                !
 ! A37   A(12,21,23)           119.2436         estimate D2E/DX2                !
 ! A38   A(12,21,24)           120.3573         estimate D2E/DX2                !
 ! A39   A(23,21,24)           114.8612         estimate D2E/DX2                !
 ! A40   A(25,22,26)           114.8625         estimate D2E/DX2                !
 ! A41   A(25,22,31)           120.3784         estimate D2E/DX2                !
 ! A42   A(26,22,31)           119.2239         estimate D2E/DX2                !
 ! A43   A(21,23,26)           119.8389         estimate D2E/DX2                !
 ! A44   A(21,23,27)           121.3299         estimate D2E/DX2                !
 ! A45   A(26,23,27)           116.6909         estimate D2E/DX2                !
 ! A46   A(21,24,25)           119.8161         estimate D2E/DX2                !
 ! A47   A(21,24,28)           120.9766         estimate D2E/DX2                !
 ! A48   A(25,24,28)           117.2906         estimate D2E/DX2                !
 ! A49   A(22,25,24)           119.7602         estimate D2E/DX2                !
 ! A50   A(22,25,29)           120.9544         estimate D2E/DX2                !
 ! A51   A(24,25,29)           117.3597         estimate D2E/DX2                !
 ! A52   A(22,26,23)           119.8509         estimate D2E/DX2                !
 ! A53   A(22,26,30)           121.3297         estimate D2E/DX2                !
 ! A54   A(23,26,30)           116.6819         estimate D2E/DX2                !
 ! A55   A(22,31,33)           120.382          estimate D2E/DX2                !
 ! A56   A(22,31,34)           119.2492         estimate D2E/DX2                !
 ! A57   A(33,31,34)           114.8792         estimate D2E/DX2                !
 ! A58   A(2,32,35)            119.2207         estimate D2E/DX2                !
 ! A59   A(2,32,36)            120.3306         estimate D2E/DX2                !
 ! A60   A(35,32,36)           114.9102         estimate D2E/DX2                !
 ! A61   A(31,33,36)           119.7735         estimate D2E/DX2                !
 ! A62   A(31,33,37)           120.9654         estimate D2E/DX2                !
 ! A63   A(36,33,37)           117.3284         estimate D2E/DX2                !
 ! A64   A(31,34,35)           119.8495         estimate D2E/DX2                !
 ! A65   A(31,34,38)           121.3631         estimate D2E/DX2                !
 ! A66   A(35,34,38)           116.6237         estimate D2E/DX2                !
 ! A67   A(32,35,34)           119.8065         estimate D2E/DX2                !
 ! A68   A(32,35,39)           121.3603         estimate D2E/DX2                !
 ! A69   A(34,35,39)           116.7038         estimate D2E/DX2                !
 ! A70   A(32,36,33)           119.759          estimate D2E/DX2                !
 ! A71   A(32,36,40)           120.9887         estimate D2E/DX2                !
 ! A72   A(33,36,40)           117.349          estimate D2E/DX2                !
 ! D1    D(4,1,3,6)             26.3192         estimate D2E/DX2                !
 ! D2    D(4,1,3,7)           -170.962          estimate D2E/DX2                !
 ! D3    D(11,1,3,6)          -127.6225         estimate D2E/DX2                !
 ! D4    D(11,1,3,7)            35.0963         estimate D2E/DX2                !
 ! D5    D(3,1,4,5)            -26.2921         estimate D2E/DX2                !
 ! D6    D(3,1,4,8)            169.9988         estimate D2E/DX2                !
 ! D7    D(11,1,4,5)           127.3401         estimate D2E/DX2                !
 ! D8    D(11,1,4,8)           -36.369          estimate D2E/DX2                !
 ! D9    D(3,1,11,13)          143.9247         estimate D2E/DX2                !
 ! D10   D(3,1,11,14)           -8.6008         estimate D2E/DX2                !
 ! D11   D(4,1,11,13)           -8.5696         estimate D2E/DX2                !
 ! D12   D(4,1,11,14)         -161.0951         estimate D2E/DX2                !
 ! D13   D(6,2,5,4)             26.1463         estimate D2E/DX2                !
 ! D14   D(6,2,5,9)           -170.0024         estimate D2E/DX2                !
 ! D15   D(32,2,5,4)          -127.402          estimate D2E/DX2                !
 ! D16   D(32,2,5,9)            36.4493         estimate D2E/DX2                !
 ! D17   D(5,2,6,3)            -26.1541         estimate D2E/DX2                !
 ! D18   D(5,2,6,10)           171.0057         estimate D2E/DX2                !
 ! D19   D(32,2,6,3)           127.708          estimate D2E/DX2                !
 ! D20   D(32,2,6,10)          -35.1322         estimate D2E/DX2                !
 ! D21   D(5,2,32,35)            8.5701         estimate D2E/DX2                !
 ! D22   D(5,2,32,36)          160.995          estimate D2E/DX2                !
 ! D23   D(6,2,32,35)         -143.8549         estimate D2E/DX2                !
 ! D24   D(6,2,32,36)            8.5701         estimate D2E/DX2                !
 ! D25   D(1,3,6,2)             -0.0908         estimate D2E/DX2                !
 ! D26   D(1,3,6,10)           163.5146         estimate D2E/DX2                !
 ! D27   D(7,3,6,2)           -163.6072         estimate D2E/DX2                !
 ! D28   D(7,3,6,10)            -0.0018         estimate D2E/DX2                !
 ! D29   D(1,4,5,2)              0.0756         estimate D2E/DX2                !
 ! D30   D(1,4,5,9)           -164.3468         estimate D2E/DX2                !
 ! D31   D(8,4,5,2)            164.3772         estimate D2E/DX2                !
 ! D32   D(8,4,5,9)             -0.0452         estimate D2E/DX2                !
 ! D33   D(1,11,13,16)        -127.6341         estimate D2E/DX2                !
 ! D34   D(1,11,13,17)          35.0891         estimate D2E/DX2                !
 ! D35   D(14,11,13,16)         26.3346         estimate D2E/DX2                !
 ! D36   D(14,11,13,17)       -170.9421         estimate D2E/DX2                !
 ! D37   D(1,11,14,15)         127.3855         estimate D2E/DX2                !
 ! D38   D(1,11,14,18)         -36.3845         estimate D2E/DX2                !
 ! D39   D(13,11,14,15)        -26.2772         estimate D2E/DX2                !
 ! D40   D(13,11,14,18)        169.9528         estimate D2E/DX2                !
 ! D41   D(16,12,15,14)         26.1696         estimate D2E/DX2                !
 ! D42   D(16,12,15,19)       -170.0299         estimate D2E/DX2                !
 ! D43   D(21,12,15,14)       -127.3734         estimate D2E/DX2                !
 ! D44   D(21,12,15,19)         36.4271         estimate D2E/DX2                !
 ! D45   D(15,12,16,13)        -26.1426         estimate D2E/DX2                !
 ! D46   D(15,12,16,20)        170.9543         estimate D2E/DX2                !
 ! D47   D(21,12,16,13)        127.7266         estimate D2E/DX2                !
 ! D48   D(21,12,16,20)        -35.1766         estimate D2E/DX2                !
 ! D49   D(15,12,21,23)          8.5687         estimate D2E/DX2                !
 ! D50   D(15,12,21,24)        160.9818         estimate D2E/DX2                !
 ! D51   D(16,12,21,23)       -143.8532         estimate D2E/DX2                !
 ! D52   D(16,12,21,24)          8.5599         estimate D2E/DX2                !
 ! D53   D(11,13,16,12)         -0.1126         estimate D2E/DX2                !
 ! D54   D(11,13,16,20)        163.5715         estimate D2E/DX2                !
 ! D55   D(17,13,16,12)       -163.6352         estimate D2E/DX2                !
 ! D56   D(17,13,16,20)          0.0488         estimate D2E/DX2                !
 ! D57   D(11,14,15,12)          0.0418         estimate D2E/DX2                !
 ! D58   D(11,14,15,19)       -164.3302         estimate D2E/DX2                !
 ! D59   D(18,14,15,12)        164.3899         estimate D2E/DX2                !
 ! D60   D(18,14,15,19)          0.0179         estimate D2E/DX2                !
 ! D61   D(12,21,23,26)        127.6759         estimate D2E/DX2                !
 ! D62   D(12,21,23,27)        -35.1454         estimate D2E/DX2                !
 ! D63   D(24,21,23,26)        -26.1939         estimate D2E/DX2                !
 ! D64   D(24,21,23,27)        170.9848         estimate D2E/DX2                !
 ! D65   D(12,21,24,25)       -127.3734         estimate D2E/DX2                !
 ! D66   D(12,21,24,28)         36.4462         estimate D2E/DX2                !
 ! D67   D(23,21,24,25)         26.1814         estimate D2E/DX2                !
 ! D68   D(23,21,24,28)       -169.9991         estimate D2E/DX2                !
 ! D69   D(26,22,25,24)        -26.223          estimate D2E/DX2                !
 ! D70   D(26,22,25,29)        169.9838         estimate D2E/DX2                !
 ! D71   D(31,22,25,24)        127.3322         estimate D2E/DX2                !
 ! D72   D(31,22,25,29)        -36.4609         estimate D2E/DX2                !
 ! D73   D(25,22,26,23)         26.2425         estimate D2E/DX2                !
 ! D74   D(25,22,26,30)       -170.9262         estimate D2E/DX2                !
 ! D75   D(31,22,26,23)       -127.6393         estimate D2E/DX2                !
 ! D76   D(31,22,26,30)         35.192          estimate D2E/DX2                !
 ! D77   D(25,22,31,33)       -161.0479         estimate D2E/DX2                !
 ! D78   D(25,22,31,34)         -8.517          estimate D2E/DX2                !
 ! D79   D(26,22,31,33)         -8.6282         estimate D2E/DX2                !
 ! D80   D(26,22,31,34)        143.9027         estimate D2E/DX2                !
 ! D81   D(21,23,26,22)         -0.0198         estimate D2E/DX2                !
 ! D82   D(21,23,26,30)       -163.6286         estimate D2E/DX2                !
 ! D83   D(27,23,26,22)        163.5781         estimate D2E/DX2                !
 ! D84   D(27,23,26,30)         -0.0306         estimate D2E/DX2                !
 ! D85   D(21,24,25,22)          0.0245         estimate D2E/DX2                !
 ! D86   D(21,24,25,29)        164.3899         estimate D2E/DX2                !
 ! D87   D(28,24,25,22)       -164.3799         estimate D2E/DX2                !
 ! D88   D(28,24,25,29)         -0.0145         estimate D2E/DX2                !
 ! D89   D(22,31,33,36)        127.3722         estimate D2E/DX2                !
 ! D90   D(22,31,33,37)        -36.3868         estimate D2E/DX2                !
 ! D91   D(34,31,33,36)        -26.2921         estimate D2E/DX2                !
 ! D92   D(34,31,33,37)        169.9488         estimate D2E/DX2                !
 ! D93   D(22,31,34,35)       -127.6643         estimate D2E/DX2                !
 ! D94   D(22,31,34,38)         35.0546         estimate D2E/DX2                !
 ! D95   D(33,31,34,35)         26.3192         estimate D2E/DX2                !
 ! D96   D(33,31,34,38)       -170.962          estimate D2E/DX2                !
 ! D97   D(2,32,35,34)         127.708          estimate D2E/DX2                !
 ! D98   D(2,32,35,39)         -35.1588         estimate D2E/DX2                !
 ! D99   D(36,32,35,34)        -26.1541         estimate D2E/DX2                !
 ! D100  D(36,32,35,39)        170.9792         estimate D2E/DX2                !
 ! D101  D(2,32,36,33)        -127.402          estimate D2E/DX2                !
 ! D102  D(2,32,36,40)          36.4817         estimate D2E/DX2                !
 ! D103  D(35,32,36,33)         26.1463         estimate D2E/DX2                !
 ! D104  D(35,32,36,40)       -169.9701         estimate D2E/DX2                !
 ! D105  D(31,33,36,32)          0.0756         estimate D2E/DX2                !
 ! D106  D(31,33,36,40)       -164.3842         estimate D2E/DX2                !
 ! D107  D(37,33,36,32)        164.4146         estimate D2E/DX2                !
 ! D108  D(37,33,36,40)         -0.0453         estimate D2E/DX2                !
 ! D109  D(31,34,35,32)         -0.0908         estimate D2E/DX2                !
 ! D110  D(31,34,35,39)        163.554          estimate D2E/DX2                !
 ! D111  D(38,34,35,32)       -163.6072         estimate D2E/DX2                !
 ! D112  D(38,34,35,39)          0.0376         estimate D2E/DX2                !
 --------------------------------------------------------------------------------
 Trust Radius=3.00D-01 FncErr=1.00D-07 GrdErr=1.00D-06 EigMax=2.50D+02 EigMin=1.00D-04
 Number of steps in this run=    238 maximum allowed number of steps=    240.
 GradGradGradGradGradGradGradGradGradGradGradGradGradGradGradGradGradGrad

 Leave Link  103 at Tue May 25 22:54:56 2021, MaxMem=  1342177280 cpu:               0.1 elap:               0.0
 (Enter /home/wangzhe/g16/l202.exe)
                          Input orientation:                          
 ---------------------------------------------------------------------
 Center     Atomic      Atomic             Coordinates (Angstroms)
 Number     Number       Type             X           Y           Z
 ---------------------------------------------------------------------
      1          6           0        1.463000    0.757000   -1.681000
      2          6           0        0.375000    2.736000   -3.333000
      3          6           0        0.247000    1.365000   -1.334000
      4          6           0        2.310000    1.543000   -2.477000
      5          6           0        1.764000    2.536000   -3.307000
      6          6           0       -0.299000    2.356000   -2.162000
      7          1           0       -0.423000    0.915000   -0.606000
      8          1           0        3.336000    1.241000   -2.670000
      9          1           0        2.402000    2.940000   -4.089000
     10          1           0       -1.348000    2.596000   -2.011000
     11          6           0        1.546000   -0.757000   -1.736000
     12          6           0        0.458000   -2.736000   -3.388000
     13          6           0        2.345000   -1.365000   -2.716000
     14          6           0        0.480000   -1.543000   -1.272000
     15          6           0       -0.066000   -2.536000   -2.102000
     16          6           0        1.800000   -2.356000   -3.545000
     17          1           0        3.279000   -0.915000   -3.044000
     18          1           0       -0.102000   -1.241000   -0.405000
     19          1           0       -1.037000   -2.940000   -1.825000
     20          1           0        2.354000   -2.596000   -4.448000
     21          6           0       -0.458000   -2.736000   -4.598000
     22          6           0       -1.546000   -0.757000   -6.251000
     23          6           0       -1.800000   -2.356000   -4.442000
     24          6           0        0.066000   -2.536000   -5.884000
     25          6           0       -0.480000   -1.543000   -6.714000
     26          6           0       -2.345000   -1.365000   -5.270000
     27          1           0       -2.354000   -2.596000   -3.538000
     28          1           0        1.037000   -2.940000   -6.162000
     29          1           0        0.102000   -1.241000   -7.581000
     30          1           0       -3.279000   -0.915000   -4.943000
     31          6           0       -1.463000    0.757000   -6.305000
     32          6           0       -0.375000    2.736000   -4.653000
     33          6           0       -2.310000    1.543000   -5.509000
     34          6           0       -0.247000    1.365000   -6.652000
     35          6           0        0.299000    2.356000   -5.824000
     36          6           0       -1.764000    2.536000   -4.679000
     37          1           0       -3.336000    1.241000   -5.317000
     38          1           0        0.423000    0.915000   -7.380000
     39          1           0        1.348000    2.596000   -5.976000
     40          1           0       -2.402000    2.940000   -3.898000
 ---------------------------------------------------------------------
                    Distance matrix (angstroms):
                    1          2          3          4          5
     1  C    0.000000
     2  C    2.798087   0.000000
     3  C    1.403114   2.427350   0.000000
     4  C    1.403147   2.429035   2.365185   0.000000
     5  C    2.428851   1.403566   2.750502   1.404658   0.000000
     6  C    2.427510   1.403537   1.402063   2.750832   2.366304
     7  H    2.176599   3.374815   1.086915   3.371100   3.834842
     8  H    2.172673   3.382620   3.367817   1.086798   2.134005
     9  H    3.383146   2.172989   3.835971   2.135092   1.087099
    10  H    3.375284   2.176238   2.125492   3.834961   3.371611
    11  C    1.517271   4.015308   2.520295   2.534320   3.655053
    12  C    4.015585   5.472906   4.591474   4.750754   5.431959
    13  C    2.520324   4.591273   3.710044   2.918015   3.988063
    14  C    2.534476   4.750641   2.917978   3.784748   4.735834
    15  C    3.654987   5.431742   3.988182   4.735424   5.525044
    16  C    3.644013   5.291884   4.598497   4.074669   4.897918
    17  H    2.819789   4.674028   4.161193   2.702261   3.778068
    18  H    2.840670   4.961577   2.788562   4.226297   5.115593
    19  H    4.465260   6.040264   4.519155   5.632477   6.326808
    20  H    4.437655   5.795679   5.461315   4.584550   5.290312
    21  C    4.939654   5.677755   5.288565   5.519991   5.864976
    22  C    5.677251   4.940244   5.647532   5.865306   5.519700
    23  C    5.287822   5.647032   5.262672   5.996293   6.158083
    24  C    5.519118   5.864901   5.996087   5.769006   5.937114
    25  C    5.864839   5.520147   6.158684   5.937985   5.769006
    26  C    5.646651   5.288532   5.446417   6.158436   5.996253
    27  H    5.409302   5.993304   5.226121   6.325341   6.583974
    28  H    5.824830   6.376399   6.516649   5.941131   6.218210
    29  H    6.376074   5.825510   6.770323   6.219062   5.940964
    30  H    5.993563   5.410510   5.536782   6.584819   6.325958
    31  C    5.472006   4.015902   5.291938   5.432026   4.750408
    32  C    4.015902   1.518190   3.644487   3.656152   2.535160
    33  C    5.432026   3.656152   4.899036   5.526068   4.736278
    34  C    5.291938   3.644487   5.340895   4.899036   4.074848
    35  C    4.590876   2.520964   4.598357   3.988421   2.917861
    36  C    4.750408   2.535160   4.074848   4.736278   3.785389
    37  H    6.040294   4.465736   5.358876   6.327252   5.632684
    38  H    5.795271   4.438080   6.065278   5.290989   4.584239
    39  H    4.673561   2.819890   4.927040   3.778525   2.701891
    40  H    4.961734   2.841227   4.008980   5.116033   4.227062
                    6          7          8          9         10
     6  C    0.000000
     7  H    2.124381   0.000000
     8  H    3.835950   4.300750   0.000000
     9  H    3.368944   4.920624   2.402607   0.000000
    10  H    1.086647   2.378111   4.920382   4.301037   0.000000
    11  C    3.643662   2.819476   2.840503   4.465104   4.437733
    12  C    5.291936   4.673915   4.961344   6.040489   5.795515
    13  C    4.598205   4.160808   2.788446   4.519005   5.461208
    14  C    4.074450   2.701986   4.226322   5.632660   4.584651
    15  C    4.897913   3.778209   5.114876   6.326592   5.290485
    16  C    5.340546   4.927361   4.007908   5.357794   6.065094
    17  H    4.927418   4.795576   2.188941   4.089276   5.899435
    18  H    4.008025   2.189013   4.807327   6.109225   4.342156
    19  H    5.357782   4.089497   6.108839   7.178218   5.547848
    20  H    6.065188   5.899137   4.341449   5.547836   6.826466
    21  C    5.646932   5.409907   5.824787   6.376179   5.992904
    22  C    5.288260   5.993558   6.375695   5.824840   5.409197
    23  C    5.445580   5.225942   6.515895   6.769714   5.535013
    24  C    6.157773   6.325014   5.940406   6.218159   6.583081
    25  C    5.996304   6.584275   6.218235   5.940862   6.324789
    26  C    5.262283   5.535827   6.769416   6.516272   5.225381
    27  H    5.535224   4.965129   6.917521   7.319183   5.504601
    28  H    6.769971   6.918219   5.912717   6.382394   7.318902
    29  H    6.516500   7.319466   6.382554   5.913106   6.917367
    30  H    5.226261   5.505925   7.319364   6.918389   4.965129
    31  C    4.590876   5.795271   6.039692   4.961287   4.672642
    32  C    2.520964   4.438080   4.465292   2.841028   2.818952
    33  C    3.988421   5.290989   6.326803   5.115755   3.777599
    34  C    4.598357   6.065278   5.358133   4.008341   4.926098
    35  C    3.710505   5.461253   4.518220   2.788170   4.160430
    36  C    2.917861   4.584239   5.632327   4.226922   2.700904
    37  H    4.518918   5.548456   7.177896   6.108947   4.088741
    38  H    5.461253   6.826624   5.547607   4.341399   5.898166
    39  H    4.161347   5.899076   4.088741   2.188612   4.794751
    40  H    2.788792   4.342157   6.108947   4.807795   2.188612
                   11         12         13         14         15
    11  C    0.000000
    12  C    2.798087   0.000000
    13  C    1.403020   2.427343   0.000000
    14  C    1.403370   2.429236   2.365385   0.000000
    15  C    2.428444   1.402987   2.749756   1.404658   0.000000
    16  C    2.427715   1.403572   1.402265   2.751345   2.365714
    17  H    2.176951   3.375266   1.087401   3.371761   3.834583
    18  H    2.172952   3.383329   3.368072   1.087022   2.134978
    19  H    3.383090   2.172466   3.835679   2.135113   1.087560
    20  H    3.374867   2.176698   2.124916   3.835057   3.371011
    21  C    4.015408   1.517615   3.643950   3.655868   2.534498
    22  C    5.472265   4.016121   5.292048   5.432579   4.750731
    23  C    4.590746   2.520690   4.598063   3.988517   2.918005
    24  C    4.749857   2.534498   4.074470   4.735820   3.784303
    25  C    5.431662   3.655868   4.898603   5.526026   4.735820
    26  C    5.291380   3.643950   5.340320   4.898603   4.074470
    27  H    4.673235   2.819476   4.926626   3.778243   2.701970
    28  H    4.961254   2.841115   4.008292   5.116049   4.226515
    29  H    6.040150   4.465760   5.358605   6.327525   5.632467
    30  H    5.795726   4.438382   6.065592   5.291569   4.585007
    31  C    5.676446   4.939654   5.646651   5.864839   5.519118
    32  C    4.939654   5.677755   5.288532   5.520147   5.864901
    33  C    5.864662   5.519991   6.158436   5.937985   5.769006
    34  C    5.646662   5.288565   5.446417   6.158684   5.996087
    35  C    5.287487   5.646932   5.262283   5.996304   6.157773
    36  C    5.519166   5.864976   5.996253   5.769006   5.937114
    37  H    6.375695   5.825119   6.769800   6.218886   5.940947
    38  H    5.992616   5.409907   5.535827   6.584275   6.325014
    39  H    5.409197   5.993335   5.226005   6.325532   6.583669
    40  H    5.824840   6.376259   6.516453   5.941304   6.218447
                   16         17         18         19         20
    16  C    0.000000
    17  H    2.124835   0.000000
    18  H    3.836721   4.301367   0.000000
    19  H    3.368683   4.920817   2.403586   0.000000
    20  H    1.086244   2.377520   4.920753   4.300854   0.000000
    21  C    2.520272   4.438032   4.465760   2.840138   2.819476
    22  C    4.590746   5.795726   6.041118   4.961254   4.673621
    23  C    3.710069   5.461422   4.519270   2.787815   4.160932
    24  C    2.917204   4.584388   5.632467   4.225554   2.701970
    25  C    3.987722   5.290876   6.327525   5.115093   3.778243
    26  C    4.597688   6.065225   5.358605   4.007432   4.926626
    27  H    4.160933   5.899194   4.089403   2.187966   4.795140
    28  H    2.787815   4.341557   6.109580   4.807395   2.188749
    29  H    4.518376   5.548331   7.178899   6.108638   4.089403
    30  H    5.461422   6.827413   5.549148   4.341557   5.899277
    31  C    5.287300   5.993018   6.376074   5.824061   5.409302
    32  C    5.646836   5.410212   5.825510   6.375955   5.993304
    33  C    5.995965   6.584445   6.219062   5.940511   6.325341
    34  C    5.262081   5.536130   6.770323   6.515908   5.226121
    35  C    5.445162   5.225729   6.516500   6.769381   5.535224
    36  C    6.157899   6.325700   5.940964   6.217750   6.583974
    37  H    6.515895   7.319364   6.383324   5.912717   6.917646
    38  H    5.225208   5.505137   7.319466   6.917416   4.965129
    39  H    5.535013   4.965129   6.918172   7.318902   5.504878
    40  H    6.769714   6.918389   5.913697   6.382394   7.319107
                   21         22         23         24         25
    21  C    0.000000
    22  C    2.798677   0.000000
    23  C    1.403460   2.427715   0.000000
    24  C    1.402987   2.428595   2.365105   0.000000
    25  C    2.429236   1.403040   2.750519   1.404658   0.000000
    26  C    2.427343   1.403719   1.401674   2.749756   2.365385
    27  H    2.176698   3.375671   1.087075   3.371011   3.835057
    28  H    2.173186   3.383090   3.368683   1.087815   2.134854
    29  H    3.383329   2.172340   3.835903   2.134978   1.087022
    30  H    3.375368   2.176951   2.124835   3.834338   3.371235
    31  C    4.015585   1.517235   3.643502   3.654987   2.534476
    32  C    5.472906   4.015706   5.291844   5.431742   4.750641
    33  C    4.750754   2.534612   4.074407   4.735424   3.784748
    34  C    4.591474   2.520136   4.598016   3.988182   2.917978
    35  C    5.291936   3.643779   5.340287   4.897913   4.074450
    36  C    5.431959   3.655483   4.897870   5.525044   4.735834
    37  H    4.961489   2.840503   4.007908   5.114765   4.225991
    38  H    4.673915   2.819075   4.926765   3.778209   2.701986
    39  H    5.795752   4.437733   6.065094   5.290502   4.584490
    40  H    6.040373   4.465104   5.357794   6.326278   5.632160
                   26         27         28         29         30
    26  C    0.000000
    27  H    2.124916   0.000000
    28  H    3.835911   4.301464   0.000000
    29  H    3.368072   4.920753   2.402995   0.000000
    30  H    1.087099   2.378111   4.920817   4.300754   0.000000
    31  C    2.520324   4.437655   4.465228   2.840670   2.819306
    32  C    4.591273   5.795679   6.040513   4.961577   4.674090
    33  C    2.918015   4.584550   5.632593   4.226297   2.702051
    34  C    3.710044   5.461315   4.519046   2.788562   4.160782
    35  C    4.598205   6.065188   5.357845   4.008025   4.927239
    36  C    3.988063   5.290312   6.327042   5.115593   3.778137
    37  H    2.788463   4.341858   6.108839   4.806856   2.188941
    38  H    4.160808   5.899137   4.089199   2.189013   4.795068
    39  H    5.461337   6.826823   5.547848   4.341786   5.899435
    40  H    4.518701   5.547901   7.178218   6.108622   4.089276
                   31         32         33         34         35
    31  C    0.000000
    32  C    2.798087   0.000000
    33  C    1.403147   2.429035   0.000000
    34  C    1.403114   2.427350   2.365185   0.000000
    35  C    2.427510   1.403537   2.750832   1.402063   0.000000
    36  C    2.428851   1.403566   1.404658   2.750502   2.366304
    37  H    2.172218   3.382816   1.086620   3.367421   3.835818
    38  H    2.176599   3.374815   3.371100   1.086915   2.124381
    39  H    3.375186   2.176846   3.835083   2.125173   1.086787
    40  H    3.382434   2.172641   2.134337   3.835253   3.368372
                   36         37         38         39         40
    36  C    0.000000
    37  H    2.134304   0.000000
    38  H    3.834842   4.300270   0.000000
    39  H    3.371995   4.920382   2.377520   0.000000
    40  H    1.086380   2.402607   4.919916   4.301037   0.000000
 Stoichiometry    C24H16
 Framework group  C1[X(C24H16)]
 Deg. of freedom   114
 Full point group                 C1      NOp   1
 Largest Abelian subgroup         C1      NOp   1
 Largest concise Abelian subgroup C1      NOp   1
                         Standard orientation:                         
 ---------------------------------------------------------------------
 Center     Atomic      Atomic             Coordinates (Angstroms)
 Number     Number       Type             X           Y           Z
 ---------------------------------------------------------------------
      1          6           0       -2.830405    0.213501   -0.049764
      2          6           0       -1.272509    2.537775   -0.049809
      3          6           0       -2.576201    0.883352   -1.256167
      4          6           0       -2.787253    1.023119    1.095433
      5          6           0       -2.004625    2.189549    1.095940
      6          6           0       -1.794826    2.047497   -1.256760
      7          1           0       -2.724142    0.395538   -2.216133
      8          1           0       -3.124315    0.648827    2.058461
      9          1           0       -1.786272    2.644361    2.058879
     10          1           0       -1.398944    2.370193   -2.215899
     11          6           0       -2.537246   -1.271848    0.049775
     12          6           0       -0.213688   -2.830810    0.049653
     13          6           0       -2.047759   -1.795064    1.256056
     14          6           0       -2.190187   -2.004528   -1.095728
     15          6           0       -1.023374   -2.786584   -1.095259
     16          6           0       -0.882692   -2.575426    1.256809
     17          1           0       -2.370032   -1.399963    2.216511
     18          1           0       -2.644980   -1.786366   -2.058633
     19          1           0       -0.648245   -3.124378   -2.058566
     20          1           0       -0.395286   -2.723963    2.216130
     21          6           0        1.272055   -2.537862   -0.049876
     22          6           0        2.830770   -0.213427   -0.049372
     23          6           0        1.794859   -2.047440   -1.256467
     24          6           0        2.004362   -2.189644    1.095044
     25          6           0        2.786990   -1.023214    1.095551
     26          6           0        2.575695   -0.883402   -1.256225
     27          1           0        1.399488   -2.369998   -2.216348
     28          1           0        1.786358   -2.644426    2.058885
     29          1           0        3.124941   -0.648785    2.058468
     30          1           0        2.724685   -0.395343   -2.216113
     31          6           0        2.537353    1.271867    0.049676
     32          6           0        0.213794    2.830829    0.049798
     33          6           0        2.190102    2.004554   -1.095490
     34          6           0        2.047917    1.795046    1.256103
     35          6           0        0.883130    2.575463    1.256734
     36          6           0        1.023289    2.786610   -1.095959
     37          1           0        2.644826    1.786417   -2.057980
     38          1           0        2.369960    1.399861    2.216052
     39          1           0        0.395213    2.723862    2.216432
     40          1           0        0.649450    3.124697   -2.058332
 ---------------------------------------------------------------------
 Rotational constants (GHZ):           0.3202592           0.3202323           0.2042218
 Leave Link  202 at Tue May 25 22:54:56 2021, MaxMem=  1342177280 cpu:               0.1 elap:               0.0
 (Enter /home/wangzhe/g16/l301.exe)
 Standard basis: 6-31G(d) (6D, 7F)
 Ernie: Thresh=  0.10000D-02 Tol=  0.10000D-05 Strict=F.
 There are   392 symmetry adapted cartesian basis functions of A   symmetry.
 There are   392 symmetry adapted basis functions of A   symmetry.
   392 basis functions,   736 primitive gaussians,   392 cartesian basis functions
    80 alpha electrons       80 beta electrons
       nuclear repulsion energy      1904.8845979570 Hartrees.
 IExCor=  402 DFT=T Ex+Corr=B3LYP ExCW=0 ScaHFX=  0.200000
 ScaDFX=  0.800000  0.720000  1.000000  0.810000 ScalE2=  1.000000  1.000000
 IRadAn=      5 IRanWt=     -1 IRanGd=            0 ICorTp=0 IEmpDi=  4
 NAtoms=   40 NActive=   40 NUniq=   40 SFac= 1.00D+00 NAtFMM=   60 NAOKFM=F Big=F
 Integral buffers will be    131072 words long.
 Raffenetti 2 integral format.
 Two-electron integral symmetry is turned on.
 Leave Link  301 at Tue May 25 22:54:56 2021, MaxMem=  1342177280 cpu:               0.2 elap:               0.1
 (Enter /home/wangzhe/g16/l302.exe)
 NPDir=0 NMtPBC=     1 NCelOv=     1 NCel=       1 NClECP=     1 NCelD=      1
         NCelK=      1 NCelE2=     1 NClLst=     1 CellRange=     0.0.
 One-electron integrals computed using PRISM.
 One-electron integral symmetry used in STVInt
 NBasis=   392 RedAO= T EigKep=  4.32D-04  NBF=   392
 NBsUse=   392 1.00D-06 EigRej= -1.00D+00 NBFU=   392
 Precomputing XC quadrature grid using
 IXCGrd= 4 IRadAn=           5 IRanWt=          -1 IRanGd=           0 AccXCQ= 0.00D+00.
 Generated NRdTot=       0 NPtTot=           0 NUsed=           0 NTot=          32
 NSgBfM=   387   387   387   387   387 MxSgAt=    40 MxSgA2=    40.
 Leave Link  302 at Tue May 25 22:54:57 2021, MaxMem=  1342177280 cpu:               7.4 elap:               1.1
 (Enter /home/wangzhe/g16/l303.exe)
 DipDrv:  MaxL=1.
 Leave Link  303 at Tue May 25 22:54:58 2021, MaxMem=  1342177280 cpu:               0.4 elap:               0.1
 (Enter /home/wangzhe/g16/l401.exe)
 ExpMin= 1.61D-01 ExpMax= 3.05D+03 ExpMxC= 4.57D+02 IAcc=3 IRadAn=         5 AccDes= 0.00D+00
 Harris functional with IExCor=  402 and IRadAn=       5 diagonalized for initial guess.
 HarFok:  IExCor=  402 AccDes= 0.00D+00 IRadAn=         5 IDoV= 1 UseB2=F ITyADJ=14
 ICtDFT=  3500011 ScaDFX=  1.000000  1.000000  1.000000  1.000000
 FoFCou: FMM=F IPFlag=           0 FMFlag=      100000 FMFlg1=           0
         NFxFlg=           0 DoJE=T BraDBF=F KetDBF=T FulRan=T
         wScrn=  0.000000 ICntrl=       500 IOpCl=  0 I1Cent=   200000004 NGrid=           0
         NMat0=    1 NMatS0=      1 NMatT0=    0 NMatD0=    1 NMtDS0=    0 NMtDT0=    0
 Petite list used in FoFCou.
 Harris En= -923.998949993040    
 JPrj=0 DoOrth=F DoCkMO=F.
 Leave Link  401 at Tue May 25 22:55:00 2021, MaxMem=  1342177280 cpu:              17.9 elap:               2.6
 (Enter /home/wangzhe/g16/l502.exe)
 Integral symmetry usage will be decided dynamically.
 Closed shell SCF:
 Using DIIS extrapolation, IDIIS=  1040.
 NGot=  1342177280 LenX=  1341862618 LenY=  1341708513
 Requested convergence on RMS density matrix=1.00D-08 within 128 cycles.
 Requested convergence on MAX density matrix=1.00D-06.
 Requested convergence on             energy=1.00D-06.
 No special actions if energy rises.
 Fock matrices will be formed incrementally for  20 cycles.
 Integral accuracy reduced to 1.0D-05 until final iterations.

 Cycle   1  Pass 0  IDiag  1:
 FoFJK:  IHMeth= 1 ICntrl=       0 DoSepK=F KAlg= 0 I1Cent=           0 FoldK=F
 IRaf= 840000000 NMat=       1 IRICut=       1 DoRegI=T DoRafI=F ISym2E= 0 IDoP0=0 IntGTp=1.
 FoFCou: FMM=F IPFlag=           0 FMFlag=      100000 FMFlg1=           0
         NFxFlg=           0 DoJE=F BraDBF=F KetDBF=F FulRan=T
         wScrn=  0.000000 ICntrl=         0 IOpCl=  0 I1Cent=           0 NGrid=           0
         NMat0=    1 NMatS0=      1 NMatT0=    0 NMatD0=    1 NMtDS0=    0 NMtDT0=    0
 Symmetry not used in FoFCou.
 E= -923.519039688105    
 DIIS: error= 3.79D-02 at cycle   1 NSaved=   1.
 NSaved= 1 IEnMin= 1 EnMin= -923.519039688105     IErMin= 1 ErrMin= 3.79D-02
 ErrMax= 3.79D-02  0.00D+00 EMaxC= 1.00D-01 BMatC= 4.28D-01 BMatP= 4.28D-01
 IDIUse=3 WtCom= 6.21D-01 WtEn= 3.79D-01
 Coeff-Com:  0.100D+01
 Coeff-En:   0.100D+01
 Coeff:      0.100D+01
 Gap=     0.087 Goal=   None    Shift=    0.000
 GapD=    0.087 DampG=0.500 DampE=0.500 DampFc=0.2500 IDamp=-1.
 Damping current iteration by 2.50D-01
 RMSDP=3.97D-03 MaxDP=1.09D-01              OVMax= 1.57D-01

 Cycle   2  Pass 0  IDiag  1:
 RMSU=  9.67D-04    CP:  9.86D-01
 E= -923.686221919441     Delta-E=       -0.167182231336 Rises=F Damp=T
 DIIS: error= 2.08D-02 at cycle   2 NSaved=   2.
 NSaved= 2 IEnMin= 2 EnMin= -923.686221919441     IErMin= 2 ErrMin= 2.08D-02
 ErrMax= 2.08D-02  0.00D+00 EMaxC= 1.00D-01 BMatC= 1.29D-01 BMatP= 4.28D-01
 IDIUse=3 WtCom= 7.92D-01 WtEn= 2.08D-01
 Coeff-Com: -0.102D+01 0.202D+01
 Coeff-En:   0.000D+00 0.100D+01
 Coeff:     -0.810D+00 0.181D+01
 Gap=     0.093 Goal=   None    Shift=    0.000
 RMSDP=1.35D-03 MaxDP=2.76D-02 DE=-1.67D-01 OVMax= 7.75D-02

 Cycle   3  Pass 0  IDiag  1:
 RMSU=  9.41D-04    CP:  9.64D-01  1.93D+00
 E= -923.988106648876     Delta-E=       -0.301884729435 Rises=F Damp=F
 DIIS: error= 2.66D-03 at cycle   3 NSaved=   3.
 NSaved= 3 IEnMin= 3 EnMin= -923.988106648876     IErMin= 3 ErrMin= 2.66D-03
 ErrMax= 2.66D-03  0.00D+00 EMaxC= 1.00D-01 BMatC= 2.92D-03 BMatP= 1.29D-01
 IDIUse=3 WtCom= 9.73D-01 WtEn= 2.66D-02
 Coeff-Com: -0.103D+00 0.268D+00 0.835D+00
 Coeff-En:   0.000D+00 0.000D+00 0.100D+01
 Coeff:     -0.100D+00 0.261D+00 0.839D+00
 Gap=     0.093 Goal=   None    Shift=    0.000
 RMSDP=2.63D-04 MaxDP=6.39D-03 DE=-3.02D-01 OVMax= 1.35D-02

 Cycle   4  Pass 0  IDiag  1:
 RMSU=  2.11D-04    CP:  9.65D-01  1.86D+00  8.47D-01
 E= -923.990513990304     Delta-E=       -0.002407341428 Rises=F Damp=F
 DIIS: error= 1.14D-03 at cycle   4 NSaved=   4.
 NSaved= 4 IEnMin= 4 EnMin= -923.990513990304     IErMin= 4 ErrMin= 1.14D-03
 ErrMax= 1.14D-03  0.00D+00 EMaxC= 1.00D-01 BMatC= 6.18D-04 BMatP= 2.92D-03
 IDIUse=3 WtCom= 9.89D-01 WtEn= 1.14D-02
 Coeff-Com:  0.814D-02 0.963D-02 0.334D+00 0.649D+00
 Coeff-En:   0.000D+00 0.000D+00 0.000D+00 0.100D+01
 Coeff:      0.805D-02 0.952D-02 0.330D+00 0.653D+00
 Gap=     0.092 Goal=   None    Shift=    0.000
 RMSDP=1.14D-04 MaxDP=3.16D-03 DE=-2.41D-03 OVMax= 1.07D-02

 Cycle   5  Pass 0  IDiag  1:
 RMSU=  8.00D-05    CP:  9.65D-01  1.88D+00  8.55D-01  6.27D-01
 E= -923.990966372272     Delta-E=       -0.000452381968 Rises=F Damp=F
 DIIS: error= 6.71D-04 at cycle   5 NSaved=   5.
 NSaved= 5 IEnMin= 5 EnMin= -923.990966372272     IErMin= 5 ErrMin= 6.71D-04
 ErrMax= 6.71D-04  0.00D+00 EMaxC= 1.00D-01 BMatC= 2.00D-04 BMatP= 6.18D-04
 IDIUse=3 WtCom= 9.93D-01 WtEn= 6.71D-03
 Coeff-Com:  0.116D-01-0.131D-01 0.131D+00 0.404D+00 0.467D+00
 Coeff-En:   0.000D+00 0.000D+00 0.000D+00 0.244D+00 0.756D+00
 Coeff:      0.116D-01-0.130D-01 0.130D+00 0.403D+00 0.469D+00
 Gap=     0.093 Goal=   None    Shift=    0.000
 RMSDP=4.48D-05 MaxDP=1.21D-03 DE=-4.52D-04 OVMax= 4.59D-03

 Cycle   6  Pass 0  IDiag  1:
 RMSU=  1.55D-05    CP:  9.65D-01  1.87D+00  8.69D-01  6.92D-01  5.42D-01
 E= -923.991178571750     Delta-E=       -0.000212199477 Rises=F Damp=F
 DIIS: error= 6.20D-05 at cycle   6 NSaved=   6.
 NSaved= 6 IEnMin= 6 EnMin= -923.991178571750     IErMin= 6 ErrMin= 6.20D-05
 ErrMax= 6.20D-05  0.00D+00 EMaxC= 1.00D-01 BMatC= 3.16D-06 BMatP= 2.00D-04
 IDIUse=1 WtCom= 1.00D+00 WtEn= 0.00D+00
 Coeff-Com:  0.533D-02-0.687D-02 0.435D-01 0.154D+00 0.204D+00 0.601D+00
 Coeff:      0.533D-02-0.687D-02 0.435D-01 0.154D+00 0.204D+00 0.601D+00
 Gap=     0.093 Goal=   None    Shift=    0.000
 RMSDP=8.46D-06 MaxDP=2.41D-04 DE=-2.12D-04 OVMax= 7.75D-04

 Initial convergence to 1.0D-05 achieved.  Increase integral accuracy.
 Cycle   7  Pass 1  IDiag  1:
 E= -923.991157874399     Delta-E=        0.000020697350 Rises=F Damp=F
 DIIS: error= 1.39D-04 at cycle   1 NSaved=   1.
 NSaved= 1 IEnMin= 1 EnMin= -923.991157874399     IErMin= 1 ErrMin= 1.39D-04
 ErrMax= 1.39D-04  0.00D+00 EMaxC= 1.00D-01 BMatC= 2.03D-06 BMatP= 2.03D-06
 IDIUse=3 WtCom= 9.99D-01 WtEn= 1.39D-03
 Coeff-Com:  0.100D+01
 Coeff-En:   0.100D+01
 Coeff:      0.100D+01
 Gap=     0.093 Goal=   None    Shift=    0.000
 RMSDP=8.46D-06 MaxDP=2.41D-04 DE= 2.07D-05 OVMax= 1.12D-03

 Cycle   8  Pass 1  IDiag  1:
 RMSU=  4.05D-05    CP:  1.00D+00
 E= -923.991151944027     Delta-E=        0.000005930372 Rises=F Damp=F
 DIIS: error= 1.52D-04 at cycle   2 NSaved=   2.
 NSaved= 2 IEnMin= 1 EnMin= -923.991157874399     IErMin= 1 ErrMin= 1.39D-04
 ErrMax= 1.52D-04  0.00D+00 EMaxC= 1.00D-01 BMatC= 6.90D-06 BMatP= 2.03D-06
 IDIUse=3 WtCom= 4.48D-01 WtEn= 5.52D-01
 Coeff-Com:  0.668D+00 0.332D+00
 Coeff-En:   0.764D+00 0.236D+00
 Coeff:      0.721D+00 0.279D+00
 Gap=     0.093 Goal=   None    Shift=    0.000
 RMSDP=7.41D-06 MaxDP=3.00D-04 DE= 5.93D-06 OVMax= 7.71D-04

 Cycle   9  Pass 1  IDiag  1:
 RMSU=  7.18D-06    CP:  1.00D+00  9.55D-01
 E= -923.991159943686     Delta-E=       -0.000007999660 Rises=F Damp=F
 DIIS: error= 7.81D-06 at cycle   3 NSaved=   3.
 NSaved= 3 IEnMin= 3 EnMin= -923.991159943686     IErMin= 3 ErrMin= 7.81D-06
 ErrMax= 7.81D-06  0.00D+00 EMaxC= 1.00D-01 BMatC= 3.72D-08 BMatP= 2.03D-06
 IDIUse=1 WtCom= 1.00D+00 WtEn= 0.00D+00
 Coeff-Com:  0.721D-01 0.195D-01 0.908D+00
 Coeff:      0.721D-01 0.195D-01 0.908D+00
 Gap=     0.093 Goal=   None    Shift=    0.000
 RMSDP=1.39D-06 MaxDP=5.78D-05 DE=-8.00D-06 OVMax= 1.62D-04

 Cycle  10  Pass 1  IDiag  1:
 RMSU=  1.36D-06    CP:  1.00D+00  9.63D-01  1.01D+00
 E= -923.991159885761     Delta-E=        0.000000057926 Rises=F Damp=F
 DIIS: error= 1.01D-05 at cycle   4 NSaved=   4.
 NSaved= 4 IEnMin= 3 EnMin= -923.991159943686     IErMin= 3 ErrMin= 7.81D-06
 ErrMax= 1.01D-05  0.00D+00 EMaxC= 1.00D-01 BMatC= 8.93D-08 BMatP= 3.72D-08
 IDIUse=1 WtCom= 1.00D+00 WtEn= 0.00D+00
 Coeff-Com: -0.161D-02-0.118D-01 0.622D+00 0.391D+00
 Coeff:     -0.161D-02-0.118D-01 0.622D+00 0.391D+00
 Gap=     0.093 Goal=   None    Shift=    0.000
 RMSDP=8.93D-07 MaxDP=4.17D-05 DE= 5.79D-08 OVMax= 1.01D-04

 Cycle  11  Pass 1  IDiag  1:
 RMSU=  2.29D-07    CP:  1.00D+00  9.65D-01  1.02D+00  3.70D-01
 E= -923.991159981740     Delta-E=       -0.000000095979 Rises=F Damp=F
 DIIS: error= 2.10D-06 at cycle   5 NSaved=   5.
 NSaved= 5 IEnMin= 5 EnMin= -923.991159981740     IErMin= 5 ErrMin= 2.10D-06
 ErrMax= 2.10D-06  0.00D+00 EMaxC= 1.00D-01 BMatC= 1.66D-09 BMatP= 3.72D-08
 IDIUse=1 WtCom= 1.00D+00 WtEn= 0.00D+00
 Coeff-Com: -0.261D-02-0.777D-02 0.369D+00 0.244D+00 0.397D+00
 Coeff:     -0.261D-02-0.777D-02 0.369D+00 0.244D+00 0.397D+00
 Gap=     0.093 Goal=   None    Shift=    0.000
 RMSDP=1.47D-07 MaxDP=5.63D-06 DE=-9.60D-08 OVMax= 1.80D-05

 Cycle  12  Pass 1  IDiag  1:
 RMSU=  9.73D-08    CP:  1.00D+00  9.65D-01  1.02D+00  3.97D-01  5.45D-01
 E= -923.991159983499     Delta-E=       -0.000000001759 Rises=F Damp=F
 DIIS: error= 5.61D-07 at cycle   6 NSaved=   6.
 NSaved= 6 IEnMin= 6 EnMin= -923.991159983499     IErMin= 6 ErrMin= 5.61D-07
 ErrMax= 5.61D-07  0.00D+00 EMaxC= 1.00D-01 BMatC= 1.36D-10 BMatP= 1.66D-09
 IDIUse=1 WtCom= 1.00D+00 WtEn= 0.00D+00
 Coeff-Com: -0.134D-02-0.298D-02 0.134D+00 0.907D-01 0.246D+00 0.534D+00
 Coeff:     -0.134D-02-0.298D-02 0.134D+00 0.907D-01 0.246D+00 0.534D+00
 Gap=     0.093 Goal=   None    Shift=    0.000
 RMSDP=4.07D-08 MaxDP=1.33D-06 DE=-1.76D-09 OVMax= 4.81D-06

 Cycle  13  Pass 1  IDiag  1:
 RMSU=  2.39D-08    CP:  1.00D+00  9.65D-01  1.02D+00  3.97D-01  6.07D-01
                    CP:  6.94D-01
 E= -923.991159983642     Delta-E=       -0.000000000143 Rises=F Damp=F
 DIIS: error= 6.82D-08 at cycle   7 NSaved=   7.
 NSaved= 7 IEnMin= 7 EnMin= -923.991159983642     IErMin= 7 ErrMin= 6.82D-08
 ErrMax= 6.82D-08  0.00D+00 EMaxC= 1.00D-01 BMatC= 4.01D-12 BMatP= 1.36D-10
 IDIUse=1 WtCom= 1.00D+00 WtEn= 0.00D+00
 Coeff-Com: -0.400D-03-0.745D-03 0.334D-01 0.224D-01 0.767D-01 0.222D+00
 Coeff-Com:  0.647D+00
 Coeff:     -0.400D-03-0.745D-03 0.334D-01 0.224D-01 0.767D-01 0.222D+00
 Coeff:      0.647D+00
 Gap=     0.093 Goal=   None    Shift=    0.000
 RMSDP=9.16D-09 MaxDP=2.60D-07 DE=-1.43D-10 OVMax= 9.18D-07

 SCF Done:  E(RB3LYP) =  -923.991159984     A.U. after   13 cycles
            NFock= 13  Conv=0.92D-08     -V/T= 2.0098
 KE= 9.149949926800D+02 PE=-5.948797608142D+03 EE= 2.204926857521D+03
 Leave Link  502 at Tue May 25 22:55:53 2021, MaxMem=  1342177280 cpu:             413.1 elap:              52.8
 (Enter /home/wangzhe/g16/l601.exe)
 Copying SCF densities to generalized density rwf, IOpCl= 0 IROHF=0.

 **********************************************************************

            Population analysis using the SCF Density.

 **********************************************************************

 Orbital symmetries:
       Occupied  (A) (A) (A) (A) (A) (A) (A) (A) (A) (A) (A) (A)
                 (A) (A) (A) (A) (A) (A) (A) (A) (A) (A) (A) (A)
                 (A) (A) (A) (A) (A) (A) (A) (A) (A) (A) (A) (A)
                 (A) (A) (A) (A) (A) (A) (A) (A) (A) (A) (A) (A)
                 (A) (A) (A) (A) (A) (A) (A) (A) (A) (A) (A) (A)
                 (A) (A) (A) (A) (A) (A) (A) (A) (A) (A) (A) (A)
                 (A) (A) (A) (A) (A) (A) (A) (A)
       Virtual   (A) (A) (A) (A) (A) (A) (A) (A) (A) (A) (A) (A)
                 (A) (A) (A) (A) (A) (A) (A) (A) (A) (A) (A) (A)
                 (A) (A) (A) (A) (A) (A) (A) (A) (A) (A) (A) (A)
                 (A) (A) (A) (A) (A) (A) (A) (A) (A) (A) (A) (A)
                 (A) (A) (A) (A) (A) (A) (A) (A) (A) (A) (A) (A)
                 (A) (A) (A) (A) (A) (A) (A) (A) (A) (A) (A) (A)
                 (A) (A) (A) (A) (A) (A) (A) (A) (A) (A) (A) (A)
                 (A) (A) (A) (A) (A) (A) (A) (A) (A) (A) (A) (A)
                 (A) (A) (A) (A) (A) (A) (A) (A) (A) (A) (A) (A)
                 (A) (A) (A) (A) (A) (A) (A) (A) (A) (A) (A) (A)
                 (A) (A) (A) (A) (A) (A) (A) (A) (A) (A) (A) (A)
                 (A) (A) (A) (A) (A) (A) (A) (A) (A) (A) (A) (A)
                 (A) (A) (A) (A) (A) (A) (A) (A) (A) (A) (A) (A)
                 (A) (A) (A) (A) (A) (A) (A) (A) (A) (A) (A) (A)
                 (A) (A) (A) (A) (A) (A) (A) (A) (A) (A) (A) (A)
                 (A) (A) (A) (A) (A) (A) (A) (A) (A) (A) (A) (A)
                 (A) (A) (A) (A) (A) (A) (A) (A) (A) (A) (A) (A)
                 (A) (A) (A) (A) (A) (A) (A) (A) (A) (A) (A) (A)
                 (A) (A) (A) (A) (A) (A) (A) (A) (A) (A) (A) (A)
                 (A) (A) (A) (A) (A) (A) (A) (A) (A) (A) (A) (A)
                 (A) (A) (A) (A) (A) (A) (A) (A) (A) (A) (A) (A)
                 (A) (A) (A) (A) (A) (A) (A) (A) (A) (A) (A) (A)
                 (A) (A) (A) (A) (A) (A) (A) (A) (A) (A) (A) (A)
                 (A) (A) (A) (A) (A) (A) (A) (A) (A) (A) (A) (A)
                 (A) (A) (A) (A) (A) (A) (A) (A) (A) (A) (A) (A)
                 (A) (A) (A) (A) (A) (A) (A) (A) (A) (A) (A) (A)
 The electronic state is 1-A.
 Alpha  occ. eigenvalues --  -10.20385 -10.20383 -10.20380 -10.20380 -10.20363
 Alpha  occ. eigenvalues --  -10.20360 -10.20358 -10.20357 -10.19319 -10.19318
 Alpha  occ. eigenvalues --  -10.19317 -10.19317 -10.19267 -10.19265 -10.19265
 Alpha  occ. eigenvalues --  -10.19264 -10.19232 -10.19230 -10.19229 -10.19225
 Alpha  occ. eigenvalues --  -10.19181 -10.19178 -10.19177 -10.19173  -0.87984
 Alpha  occ. eigenvalues --   -0.86534  -0.86527  -0.83660  -0.80025  -0.75457
 Alpha  occ. eigenvalues --   -0.74982  -0.74980  -0.74561  -0.74560  -0.73405
 Alpha  occ. eigenvalues --   -0.69149  -0.64121  -0.63043  -0.60258  -0.60253
 Alpha  occ. eigenvalues --   -0.59261  -0.59259  -0.56858  -0.56470  -0.53816
 Alpha  occ. eigenvalues --   -0.50892  -0.50880  -0.48994  -0.47427  -0.45400
 Alpha  occ. eigenvalues --   -0.45391  -0.44158  -0.44153  -0.43120  -0.42990
 Alpha  occ. eigenvalues --   -0.42902  -0.42149  -0.41629  -0.41627  -0.41469
 Alpha  occ. eigenvalues --   -0.41009  -0.39787  -0.39730  -0.39715  -0.36869
 Alpha  occ. eigenvalues --   -0.33995  -0.33986  -0.32974  -0.32968  -0.32124
 Alpha  occ. eigenvalues --   -0.31995  -0.31961  -0.29666  -0.25982  -0.24746
 Alpha  occ. eigenvalues --   -0.24745  -0.23324  -0.23171  -0.23169  -0.16558
 Alpha virt. eigenvalues --   -0.07284  -0.03063  -0.01269  -0.01255  -0.00075
 Alpha virt. eigenvalues --   -0.00071   0.02745   0.02748   0.06460   0.06462
 Alpha virt. eigenvalues --    0.07683   0.08243   0.09699   0.10377   0.12035
 Alpha virt. eigenvalues --    0.12039   0.12510   0.12514   0.13667   0.14402
 Alpha virt. eigenvalues --    0.16832   0.19522   0.20798   0.20805   0.22964
 Alpha virt. eigenvalues --    0.22968   0.24456   0.24955   0.26030   0.27165
 Alpha virt. eigenvalues --    0.27465   0.27468   0.27600   0.28250   0.28255
 Alpha virt. eigenvalues --    0.28261   0.31096   0.34395   0.34803   0.34822
 Alpha virt. eigenvalues --    0.35012   0.35018   0.37747   0.38048   0.38061
 Alpha virt. eigenvalues --    0.39474   0.39955   0.44805   0.46484   0.47475
 Alpha virt. eigenvalues --    0.47834   0.51768   0.51775   0.52142   0.52355
 Alpha virt. eigenvalues --    0.53904   0.53909   0.55318   0.55323   0.55325
 Alpha virt. eigenvalues --    0.55425   0.56259   0.56653   0.56670   0.56882
 Alpha virt. eigenvalues --    0.56887   0.57784   0.57939   0.57947   0.58808
 Alpha virt. eigenvalues --    0.58995   0.59378   0.59388   0.59880   0.60015
 Alpha virt. eigenvalues --    0.60038   0.61414   0.62388   0.62717   0.63182
 Alpha virt. eigenvalues --    0.63192   0.63620   0.63716   0.64878   0.64882
 Alpha virt. eigenvalues --    0.64928   0.64998   0.65052   0.67701   0.68409
 Alpha virt. eigenvalues --    0.68413   0.68939   0.70365   0.70706   0.71262
 Alpha virt. eigenvalues --    0.71276   0.72249   0.75565   0.75565   0.79455
 Alpha virt. eigenvalues --    0.81197   0.81238   0.81862   0.81865   0.82970
 Alpha virt. eigenvalues --    0.83546   0.84291   0.84355   0.84378   0.85996
 Alpha virt. eigenvalues --    0.86719   0.86726   0.87991   0.88300   0.88315
 Alpha virt. eigenvalues --    0.89426   0.89816   0.89827   0.90365   0.91313
 Alpha virt. eigenvalues --    0.91632   0.91762   0.91782   0.92984   0.92994
 Alpha virt. eigenvalues --    0.94184   0.94225   0.95283   0.97118   0.97552
 Alpha virt. eigenvalues --    0.98121   0.99344   0.99394   0.99399   1.01456
 Alpha virt. eigenvalues --    1.03002   1.04276   1.04290   1.06197   1.07573
 Alpha virt. eigenvalues --    1.07585   1.10870   1.10889   1.11581   1.11620
 Alpha virt. eigenvalues --    1.15052   1.16070   1.17513   1.18705   1.18718
 Alpha virt. eigenvalues --    1.19064   1.23110   1.25270   1.25339   1.31501
 Alpha virt. eigenvalues --    1.31680   1.33721   1.33786   1.34776   1.37254
 Alpha virt. eigenvalues --    1.40811   1.40957   1.41242   1.42981   1.42994
 Alpha virt. eigenvalues --    1.43067   1.43839   1.43908   1.45767   1.45770
 Alpha virt. eigenvalues --    1.49811   1.50240   1.51361   1.51398   1.51966
 Alpha virt. eigenvalues --    1.52133   1.52146   1.57699   1.57728   1.59184
 Alpha virt. eigenvalues --    1.59239   1.60727   1.61906   1.62714   1.64283
 Alpha virt. eigenvalues --    1.64292   1.70822   1.71367   1.77791   1.78335
 Alpha virt. eigenvalues --    1.80377   1.80392   1.81362   1.82196   1.82932
 Alpha virt. eigenvalues --    1.82941   1.84839   1.86119   1.86138   1.87670
 Alpha virt. eigenvalues --    1.89321   1.92242   1.92254   1.96878   1.97916
 Alpha virt. eigenvalues --    1.99395   1.99404   1.99409   1.99732   1.99796
 Alpha virt. eigenvalues --    2.00663   2.00832   2.00850   2.02086   2.03165
 Alpha virt. eigenvalues --    2.03174   2.05121   2.05126   2.07126   2.11151
 Alpha virt. eigenvalues --    2.11378   2.16591   2.18863   2.18871   2.18890
 Alpha virt. eigenvalues --    2.18895   2.20761   2.20774   2.20900   2.22722
 Alpha virt. eigenvalues --    2.22757   2.23305   2.23326   2.24927   2.28645
 Alpha virt. eigenvalues --    2.29299   2.31743   2.32548   2.32590   2.35811
 Alpha virt. eigenvalues --    2.37897   2.37912   2.40518   2.43606   2.44721
 Alpha virt. eigenvalues --    2.46948   2.47002   2.48117   2.49731   2.52303
 Alpha virt. eigenvalues --    2.53830   2.53841   2.55506   2.55785   2.55791
 Alpha virt. eigenvalues --    2.55920   2.59977   2.59999   2.62197   2.65347
 Alpha virt. eigenvalues --    2.66007   2.70777   2.70790   2.71124   2.71398
 Alpha virt. eigenvalues --    2.73107   2.73127   2.74352   2.75621   2.76576
 Alpha virt. eigenvalues --    2.77577   2.77582   2.82085   2.82118   2.84358
 Alpha virt. eigenvalues --    2.84387   2.85375   2.87935   2.93809   2.98187
 Alpha virt. eigenvalues --    2.99577   3.12310   3.12376   3.16193   3.20958
 Alpha virt. eigenvalues --    3.30482   3.30512   3.40874   4.05599   4.07112
 Alpha virt. eigenvalues --    4.07126   4.08909   4.09508   4.12447   4.12449
 Alpha virt. eigenvalues --    4.14738   4.15602   4.24136   4.24157   4.24168
 Alpha virt. eigenvalues --    4.31459   4.37766   4.37805   4.40346   4.40363
 Alpha virt. eigenvalues --    4.49821   4.51026   4.54160   4.55209   4.70172
 Alpha virt. eigenvalues --    4.70178   4.84159
          Condensed to atoms (all electrons):
               1          2          3          4          5          6
     1  C    4.764094  -0.037163   0.532636   0.520850  -0.039439  -0.040481
     2  C   -0.037163   4.764568  -0.040425  -0.039414   0.521095   0.532890
     3  C    0.532636  -0.040425   5.026908  -0.066171  -0.040326   0.510233
     4  C    0.520850  -0.039414  -0.066171   5.044439   0.507943  -0.040314
     5  C   -0.039439   0.521095  -0.040326   0.507943   5.043958  -0.066171
     6  C   -0.040481   0.532890   0.510233  -0.040314  -0.066171   5.026232
     7  H   -0.034794   0.004140   0.350441   0.005917   0.000390  -0.042896
     8  H   -0.034270   0.003752   0.005722   0.351566  -0.042158   0.000386
     9  H    0.003741  -0.034217   0.000383  -0.042120   0.351545   0.005708
    10  H    0.004129  -0.034774  -0.042853   0.000386   0.005912   0.350500
    11  C    0.375186   0.000978  -0.051400  -0.049946   0.004160   0.005550
    12  C    0.000981  -0.000048   0.000432   0.000235  -0.000011  -0.000030
    13  C   -0.051404   0.000432   0.003693  -0.024658   0.001036   0.000222
    14  C   -0.049948   0.000236  -0.024651   0.006863   0.000039   0.000539
    15  C    0.004166  -0.000011   0.001035   0.000039   0.000002  -0.000200
    16  C    0.005547  -0.000030   0.000221   0.000539  -0.000200   0.000005
    17  H   -0.011316   0.000008  -0.000201   0.006660   0.000267  -0.000013
    18  H   -0.009495   0.000003   0.002741  -0.000221   0.000002   0.000266
    19  H   -0.000081  -0.000001   0.000008   0.000005  -0.000000  -0.000005
    20  H   -0.000111  -0.000001   0.000006  -0.000019  -0.000005   0.000000
    21  C   -0.000048   0.000006  -0.000033  -0.000015   0.000008   0.000017
    22  C    0.000006  -0.000048   0.000017   0.000008  -0.000015  -0.000034
    23  C   -0.000034   0.000017  -0.000044  -0.000006   0.000002   0.000014
    24  C   -0.000015   0.000008  -0.000006  -0.000009   0.000003   0.000002
    25  C    0.000008  -0.000015   0.000002   0.000003  -0.000009  -0.000006
    26  C    0.000017  -0.000033   0.000014   0.000002  -0.000006  -0.000044
    27  H   -0.000002   0.000000   0.000001   0.000000   0.000000   0.000000
    28  H   -0.000001   0.000000  -0.000000  -0.000000   0.000000   0.000000
    29  H    0.000000  -0.000001   0.000000   0.000000  -0.000000  -0.000000
    30  H    0.000000  -0.000002   0.000000   0.000000  -0.000000   0.000001
    31  C   -0.000048   0.000974  -0.000030  -0.000011   0.000235   0.000431
    32  C    0.000975   0.374717   0.005559   0.004165  -0.049996  -0.051462
    33  C   -0.000011   0.004163  -0.000200   0.000002   0.000040   0.001039
    34  C   -0.000030   0.005554   0.000005  -0.000200   0.000546   0.000221
    35  C    0.000432  -0.051446   0.000221   0.001038  -0.024557   0.003652
    36  C    0.000236  -0.049990   0.000544   0.000040   0.006816  -0.024555
    37  H   -0.000000  -0.000081  -0.000005  -0.000000   0.000005   0.000009
    38  H   -0.000001  -0.000112   0.000000  -0.000005  -0.000019   0.000006
    39  H    0.000008  -0.011298  -0.000013   0.000269   0.006662  -0.000200
    40  H    0.000003  -0.009479   0.000267   0.000002  -0.000221   0.002716
               7          8          9         10         11         12
     1  C   -0.034794  -0.034270   0.003741   0.004129   0.375186   0.000981
     2  C    0.004140   0.003752  -0.034217  -0.034774   0.000978  -0.000048
     3  C    0.350441   0.005722   0.000383  -0.042853  -0.051400   0.000432
     4  C    0.005917   0.351566  -0.042120   0.000386  -0.049946   0.000235
     5  C    0.000390  -0.042158   0.351545   0.005912   0.004160  -0.000011
     6  C   -0.042896   0.000386   0.005708   0.350500   0.005550  -0.000030
     7  H    0.593959  -0.000206   0.000013  -0.007547  -0.011325   0.000008
     8  H   -0.000206   0.590883  -0.007164   0.000013  -0.009510   0.000003
     9  H    0.000013  -0.007164   0.590772  -0.000206  -0.000081  -0.000000
    10  H   -0.007547   0.000013  -0.000206   0.593728  -0.000111  -0.000001
    11  C   -0.011325  -0.009510  -0.000081  -0.000111   4.764011  -0.037129
    12  C    0.000008   0.000003  -0.000000  -0.000001  -0.037129   4.763988
    13  C   -0.000202   0.002751   0.000008   0.000006   0.532684  -0.040470
    14  C    0.006679  -0.000221   0.000005  -0.000019   0.520832  -0.039443
    15  C    0.000268   0.000002  -0.000000  -0.000005  -0.039432   0.521260
    16  C   -0.000013   0.000266  -0.000005   0.000000  -0.040402   0.532772
    17  H    0.000002   0.003389   0.000022   0.000000  -0.034782   0.004137
    18  H    0.003380   0.000003   0.000000   0.000011  -0.034253   0.003740
    19  H    0.000022   0.000000   0.000000   0.000000   0.003740  -0.034219
    20  H    0.000000   0.000011   0.000000   0.000000   0.004132  -0.034730
    21  C   -0.000002  -0.000001   0.000000   0.000000   0.000971   0.374904
    22  C    0.000000   0.000000  -0.000001  -0.000002  -0.000048   0.000976
    23  C    0.000001  -0.000000   0.000000   0.000000   0.000431  -0.051468
    24  C   -0.000000  -0.000000   0.000000   0.000000   0.000236  -0.050000
    25  C    0.000000   0.000000  -0.000000   0.000000  -0.000011   0.004163
    26  C    0.000000   0.000000  -0.000000   0.000001  -0.000030   0.005556
    27  H    0.000002  -0.000000   0.000000  -0.000000   0.000008  -0.011315
    28  H   -0.000000   0.000000   0.000000   0.000000   0.000003  -0.009491
    29  H    0.000000   0.000000   0.000000  -0.000000  -0.000000  -0.000081
    30  H   -0.000000   0.000000  -0.000000   0.000002  -0.000001  -0.000112
    31  C   -0.000001  -0.000001   0.000003   0.000008   0.000006  -0.000048
    32  C   -0.000112  -0.000081  -0.009485  -0.011328  -0.000048   0.000006
    33  C   -0.000005  -0.000000   0.000002   0.000270   0.000008  -0.000015
    34  C    0.000000  -0.000005   0.000267  -0.000013   0.000017  -0.000033
    35  C    0.000006   0.000009   0.002728  -0.000201  -0.000034   0.000017
    36  C   -0.000019   0.000005  -0.000221   0.006694  -0.000015   0.000008
    37  H    0.000000   0.000000   0.000000   0.000022   0.000000  -0.000001
    38  H    0.000000   0.000000   0.000011   0.000000   0.000000  -0.000002
    39  H    0.000000   0.000022   0.003372   0.000002  -0.000002   0.000000
    40  H    0.000011   0.000000   0.000003   0.003367  -0.000001   0.000000
              13         14         15         16         17         18
     1  C   -0.051404  -0.049948   0.004166   0.005547  -0.011316  -0.009495
     2  C    0.000432   0.000236  -0.000011  -0.000030   0.000008   0.000003
     3  C    0.003693  -0.024651   0.001035   0.000221  -0.000201   0.002741
     4  C   -0.024658   0.006863   0.000039   0.000539   0.006660  -0.000221
     5  C    0.001036   0.000039   0.000002  -0.000200   0.000267   0.000002
     6  C    0.000222   0.000539  -0.000200   0.000005  -0.000013   0.000266
     7  H   -0.000202   0.006679   0.000268  -0.000013   0.000002   0.003380
     8  H    0.002751  -0.000221   0.000002   0.000266   0.003389   0.000003
     9  H    0.000008   0.000005  -0.000000  -0.000005   0.000022   0.000000
    10  H    0.000006  -0.000019  -0.000005   0.000000   0.000000   0.000011
    11  C    0.532684   0.520832  -0.039432  -0.040402  -0.034782  -0.034253
    12  C   -0.040470  -0.039443   0.521260   0.532772   0.004137   0.003740
    13  C    5.027010  -0.066206  -0.040325   0.510239   0.350409   0.005714
    14  C   -0.066206   5.044444   0.507881  -0.040333   0.005909   0.351581
    15  C   -0.040325   0.507881   5.044189  -0.066212   0.000388  -0.042082
    16  C    0.510239  -0.040333  -0.066212   5.026461  -0.042868   0.000384
    17  H    0.350409   0.005909   0.000388  -0.042868   0.593968  -0.000205
    18  H    0.005714   0.351581  -0.042082   0.000384  -0.000205   0.590687
    19  H    0.000385  -0.042117   0.351451   0.005716   0.000012  -0.007151
    20  H   -0.042871   0.000389   0.005914   0.350530  -0.007548   0.000013
    21  C    0.005562   0.004170  -0.050017  -0.051498  -0.000112  -0.000081
    22  C   -0.000030  -0.000011   0.000236   0.000432  -0.000001  -0.000000
    23  C    0.000221   0.001038  -0.024589   0.003670   0.000006   0.000008
    24  C    0.000547   0.000041   0.006839  -0.024622  -0.000019   0.000005
    25  C   -0.000200   0.000002   0.000041   0.001037  -0.000005  -0.000000
    26  C    0.000005  -0.000200   0.000545   0.000222   0.000000  -0.000005
    27  H   -0.000013   0.000269   0.006669  -0.000201   0.000000   0.000022
    28  H    0.000267   0.000002  -0.000221   0.002724   0.000011   0.000000
    29  H   -0.000005  -0.000000   0.000005   0.000009   0.000000   0.000000
    30  H    0.000000  -0.000005  -0.000019   0.000006   0.000000   0.000000
    31  C    0.000017   0.000008  -0.000015  -0.000033   0.000000   0.000000
    32  C   -0.000033  -0.000015   0.000008   0.000017  -0.000002  -0.000001
    33  C    0.000002   0.000003  -0.000009  -0.000006   0.000000   0.000000
    34  C    0.000014   0.000002  -0.000006  -0.000044   0.000000   0.000000
[...]
 .00044107,-0.00141512,0.00313778,-0.00068857,0.00007959,0.00006165,-0.
 00004749,-0.00007918,-0.00013508,-0.00001694,-0.00026332,-0.00010812,-
 0.00007329,-0.00031434,-0.00033526,-0.00006099,0.03987671,-0.03294990,
 -0.03742600,0.01448950,-0.07438458,-0.03853117,-0.09363161,-0.18702366
 ,-0.10105980,-0.02776745,-0.02053283,-0.01209958,0.00603771,0.03360816
 ,0.02537273,-0.01150363,0.37462971,-0.00309086,-0.00039573,-0.00025367
 ,-0.03383787,-0.00208915,-0.00531936,0.00163145,-0.00209587,0.00037716
 ,-0.00141673,0.00218477,-0.00180132,0.00330785,0.00019797,-0.00451569,
 -0.00574989,0.00090049,-0.00536525,0.00007739,-0.00007850,-0.00011636,
 -0.00014344,0.00071908,0.00018772,-0.00022339,0.00001556,0.00041040,-0
 .00128501,0.00115039,-0.00115181,0.00063224,-0.00144271,0.00081377,0.0
 0031171,0.00081278,0.00030049,-0.00023920,0.00097556,0.00038692,0.0000
 3632,0.00050156,-0.00013235,0.00015071,-0.00036405,0.00011986,-0.00036
 520,-0.00054839,-0.00026051,0.00004120,-0.00005407,-0.00006308,-0.0000
 4166,-0.00000248,0.00001001,0.00005463,-0.00000332,-0.00000549,-0.0000
 0274,-0.00000959,0.00004237,-0.00152625,-0.00062210,0.00022948,0.00317
 566,0.00412030,0.00238490,0.00149280,-0.00045821,0.00096346,-0.0003197
 7,0.00103382,-0.00106448,0.00061692,-0.00251355,0.00037907,-0.00064482
 ,0.00137914,-0.00122654,0.00003506,0.00002253,0.00006171,-0.00000979,-
 0.00009843,-0.00005067,-0.00005834,0.00011129,0.00011789,-0.00068204,-
 0.00022284,0.00019488,0.01551003,-0.02634299,-0.02119301,0.00467395,-0
 .02018848,-0.09891358,-0.06363041,-0.14089857,-0.15986158,-0.01342071,
 -0.01068674,-0.00989210,0.02589149,0.01267492,0.01426772,-0.04316879,0
 .27342437,0.45246794,-0.00015261,-0.00008685,-0.00014227,-0.00027629,-
 0.00000178,0.00035533,0.00003580,0.00000553,0.00006007,0.00000985,0.00
 010391,-0.00003862,0.00006543,0.00004784,-0.00014347,-0.00012219,0.000
 00025,-0.00013538,0.00000269,0.00001995,-0.00002043,-0.00001633,0.0000
 2645,0.00000318,0.00001441,0.00000540,0.00000923,-0.00001278,-0.000025
 17,0.00000701,0.00007254,-0.00008718,0.00009321,0.00005561,0.00008383,
 -0.00005695,-0.00001517,0.00007536,-0.00000660,-0.00002606,0.00004216,
 -0.00002763,0.00000994,-0.00003193,0.00004182,0.00000335,-0.00001900,0
 .00002220,0.00001030,-0.00000124,-0.00000082,-0.00000706,-0.00000089,-
 0.00000341,0.00001432,0.00000965,-0.00000659,-0.00000146,-0.00001207,0
 .00000224,-0.00000980,-0.00002444,0.00000803,0.00024798,-0.00127499,-0
 .00001992,0.00041119,-0.00022569,-0.00035303,0.00009922,-0.00003659,0.
 00010106,0.00005984,0.00034598,-0.00006391,-0.00060964,0.00009829,0.00
 053836,-0.00005477,0.00001114,-0.00003937,-0.00001738,-0.00001379,-0.0
 0002900,0.00001611,-0.00007919,-0.00008159,0.00086145,-0.00002927,-0.0
 0059880,-0.01335682,-0.00617519,-0.00013956,0.00241730,-0.00229055,-0.
 00091060,-0.32351265,-0.05128337,0.02459252,-0.00139408,0.00294643,0.0
 0271368,0.00081061,0.00095802,0.00039428,-0.01000433,-0.00188944,0.001
 37300,0.34421329,0.00014551,-0.00012052,-0.00019588,-0.00142191,0.0004
 5191,0.00066696,-0.00012653,0.00018877,-0.00003744,-0.00010956,-0.0001
 6852,0.00014123,-0.00012993,0.00022295,-0.00071918,-0.00004838,-0.0002
 9110,0.00027659,0.00000007,0.00003450,0.00000759,-0.00002646,0.0000546
 2,-0.00000031,-0.00001711,-0.00000783,0.00003819,0.00006724,0.00000542
 ,0.00000729,0.00000452,0.00009635,0.00002378,-0.00008954,0.00000826,-0
 .00004462,0.00000591,-0.00001731,-0.00006577,-0.00008069,-0.00000738,-
 0.00001776,-0.00002693,0.00003426,0.00005634,0.00005522,0.00003604,-0.
 00001938,-0.00000074,-0.00001386,-0.00000450,0.00000548,-0.00001182,0.
 00000139,0.00001377,-0.00000681,0.00000759,0.00000325,0.00000442,0.000
 00990,0.00002890,0.00009345,0.00004490,-0.00060457,0.00072179,0.001922
 39,-0.00008013,-0.00009970,0.00014444,-0.00010689,-0.00010809,-0.00003
 274,0.00002166,0.00024621,-0.00001425,0.00037945,-0.00071306,-0.000127
 67,0.00002176,-0.00003029,0.00002263,-0.00002207,0.00001079,-0.0000123
 9,0.00002787,0.00009000,0.00009811,0.00047033,-0.00204932,0.00085301,0
 .01459313,0.01129849,0.00207622,-0.00325149,0.00122463,-0.00580954,-0.
 05207373,-0.06626759,-0.01089869,0.00401678,-0.00090013,-0.00419653,0.
 00006580,-0.00315717,-0.00186919,-0.02228693,0.00050415,0.00455013,0.0
 5884300,0.05915700,-0.00012225,0.00013081,0.00018492,-0.00014479,-0.00
 046248,0.00002205,0.00017747,-0.00016712,-0.00000065,-0.00005115,0.000
 10760,-0.00013881,0.00013282,0.00017734,0.00018791,-0.00012922,0.00020
 962,-0.00022506,-0.00001652,-0.00000097,-0.00002935,0.00000319,0.00000
 029,-0.00001993,0.00001519,-0.00000548,-0.00000686,-0.00003511,0.00000
 472,-0.00004386,-0.00003528,-0.00008167,-0.00008371,0.00013143,-0.0000
 4506,0.00008320,0.00002264,0.00001789,0.00007281,0.00006463,-0.0000171
 4,0.00004817,-0.00000445,0.00000005,-0.00007653,-0.00008587,-0.0000087
 2,-0.00001985,-0.00000120,0.00000634,0.00000221,-0.00000189,0.00000558
 ,-0.00000934,-0.00001404,0.00001488,-0.00000239,0.00000170,0.00000436,
 -0.00000611,-0.00009447,0.00009391,0.00004741,-0.00064311,0.00059474,-
 0.00235419,-0.00010551,-0.00009239,-0.00003546,0.00004641,0.00027087,-
 0.00012577,0.00012203,-0.00044747,-0.00025759,-0.00047772,0.00014531,0
 .00027917,-0.00002030,0.00004101,-0.00004525,0.00001382,0.00001101,0.0
 0000631,-0.00007720,-0.00006433,-0.00005218,0.00008837,0.00103126,0.00
 025895,0.02287440,0.00139293,-0.00246042,0.00328355,-0.00584494,0.0004
 9945,0.02507987,0.00016544,-0.03563516,-0.00134159,-0.00562888,0.00149
 989,0.00008712,0.00303221,0.00209722,-0.02178966,-0.00859221,-0.000084
 41,-0.02688816,0.01101285,0.03808667,0.00006533,0.00004636,0.00011174,
 0.00032733,-0.00020725,-0.00036673,0.00006431,-0.00001245,-0.00006802,
 -0.00004432,-0.00003560,-0.00002281,0.00004799,0.00006544,0.00007702,-
 0.00012434,0.00015699,0.00002653,-0.00001511,0.00000556,-0.00001315,0.
 00000269,0.,-0.00001651,-0.00002279,-0.00002773,-0.00001067,0.00002579
 ,0.00000362,-0.00001923,-0.00007125,0.00005026,-0.00007612,0.00010098,
 -0.00010192,0.00001449,0.00003977,-0.00003175,0.00000149,0.00003078,-0
 .00002474,0.00002720,-0.00005375,0.00000671,-0.00006291,-0.00003276,0.
 00003806,-0.00001023,-0.00001051,-0.00000331,-0.00000240,0.00000420,-0
 .00000384,-0.00000344,-0.00000894,0.00000054,0.00000609,0.00002637,0.0
 0001620,-0.00000213,0.00006762,-0.00006685,-0.00003697,0.00012427,0.00
 115536,-0.00147342,-0.00000738,0.00020835,-0.00020680,0.00047568,-0.00
 006214,0.00002096,-0.00021510,0.00002592,0.00062247,0.00004862,-0.0000
 6161,0.00019868,-0.00001375,-0.00004704,-0.00002729,0.00000828,0.00001
 574,0.00005027,0.00053500,-0.00059170,-0.00073901,0.00004757,0.0000543
 8,-0.00012363,-0.01710280,0.01759222,0.01811921,-0.00136409,-0.0020953
 5,-0.00061507,-0.00374731,-0.00513031,0.00033317,-0.16652678,0.0885233
 8,0.11305078,0.00882913,-0.01014190,-0.01023728,0.00072855,0.00042734,
 0.00011633,-0.00078229,0.00099805,0.00072771,0.17731449,-0.00009686,-0
 .00007745,-0.00002946,0.00144395,-0.00010478,-0.00051261,0.00020894,0.
 00001641,-0.00002196,-0.00000578,0.00008202,-0.00000112,0.00005499,-0.
 00001939,0.00007821,-0.00046506,0.00007495,-0.00048952,-0.00000550,0.0
 0008478,0.00001179,-0.00001997,0.00003442,0.00000091,-0.00003844,-0.00
 007554,-0.00001165,-0.00000706,-0.00003441,0.00001415,-0.00003468,-0.0
 0000870,-0.00001882,0.00007562,-0.00007856,0.00004458,0.00003683,0.000
 02973,-0.00001796,-0.00002539,0.00002246,0.00001159,-0.00004603,0.0000
 1852,-0.00002983,-0.00002236,0.00001143,-0.00001456,-0.00000444,-0.000
 01423,-0.00000551,0.00000632,-0.00001386,0.00000137,0.00000819,-0.0000
 0290,0.00000670,0.00001497,0.00001393,0.00001092,0.00020855,0.00014279
 ,-0.00017209,0.00133336,0.00111086,0.00113475,-0.00010282,0.00007840,-
 0.00008800,0.00011940,-0.00036251,0.00030225,-0.00130546,-0.00126078,0
 .00005283,-0.00005120,0.00003558,0.00001170,0.00000226,0.00000863,-0.0
 0001099,-0.00004856,-0.00004736,-0.00001959,-0.00094908,-0.00205081,-0
 .00038094,0.00003713,0.00001418,-0.00004311,-0.00204489,0.00808863,0.0
 0543036,-0.00183182,0.00122040,-0.00601682,-0.00435499,0.00191785,-0.0
 0013463,0.08428073,-0.12777091,-0.09550731,0.01740597,-0.00698577,-0.0
 1198298,-0.00211914,-0.00259086,-0.00064205,-0.00072148,0.00122815,-0.
 00030748,-0.09137992,0.12892950,0.00007106,0.00005718,-0.00009225,0.00
 024611,-0.00023805,0.00006722,-0.00001635,0.00003625,0.00000905,0.0000
 1689,-0.00005057,0.00011150,-0.00012318,0.00002238,-0.00011703,-0.0000
 3242,0.00004920,0.00018194,-0.00001314,-0.00001168,-0.00002406,-0.0000
 2048,-0.00000750,-0.00002935,0.00000831,-0.00003008,-0.00003198,0.0000
 4349,0.00000042,-0.00001478,0.00003258,-0.00005669,-0.00001359,-0.0000
 3604,0.00007935,-0.00000491,0.00000410,0.00002692,0.00002072,-0.000042
 19,-0.00001279,-0.00000849,-0.00000723,0.00001397,0.00004952,0.0000117
 8,-0.00006092,-0.00006782,-0.00003531,-0.00000626,-0.00002673,-0.00000
 382,-0.00000246,0.00000831,-0.00000372,-0.00000399,0.00000870,-0.00002
 764,0.00006531,0.00002121,-0.00018822,0.00019111,0.00034407,-0.0009615
 7,-0.00184826,-0.00175516,0.00022246,-0.00020565,0.00008892,-0.0002500
 4,0.00033536,-0.00083740,-0.00039539,-0.00105869,0.00045230,0.00008543
 ,0.00030424,-0.00021757,-0.00001081,0.00002818,-0.00001829,-0.00002549
 ,0.00000148,-0.00001213,-0.00004948,-0.00077804,0.00058186,-0.00000562
 ,-0.00001711,-0.00000806,-0.00526547,-0.00136607,0.00225277,-0.0050275
 6,-0.00419805,0.00408714,0.00374859,-0.00321742,0.00085715,0.11484558,
 -0.08630343,-0.13445180,0.00980788,-0.01396575,-0.01264168,0.00228469,
 0.00331583,0.00183768,0.00028517,-0.00086034,0.00023170,-0.11867057,0.
 10673502,0.14119867,0.00017060,0.00006394,0.00014198,-0.00032753,0.000
 81685,-0.00103365,-0.00008083,0.00014194,-0.00018239,0.00016158,-0.000
 40564,-0.00009818,-0.00022493,-0.00055536,-0.00128495,0.00002072,-0.00
 020611,0.00022929,0.00002573,0.00000701,0.00004343,-0.00001249,-0.0000
 6726,-0.00003472,0.00032425,-0.00003095,-0.00148669,0.00001682,0.00004
 071,-0.00005646,0.00007276,-0.00001482,0.00002900,-0.00005115,0.000055
 62,-0.00004524,-0.00005294,-0.00001675,-0.00002425,0.00002341,0.000046
 71,-0.00000119,0.00004369,-0.00004378,-0.00000032,0.00003099,-0.000004
 40,0.00004039,0.00003283,0.00000412,0.00000064,-0.00000681,0.00000781,
 -0.00000006,0.00000072,0.00000515,-0.00000774,-0.00000276,-0.00001813,
 -0.00000782,-0.00004295,-0.00015079,-0.00002959,-0.00048349,0.00037781
 ,0.00029136,-0.00000659,0.00006718,0.00004551,0.00003163,0.00007515,0.
 00003538,-0.00001297,-0.00008654,-0.00004620,0.00000967,-0.00027090,-0
 .00006089,0.00002163,0.00000458,0.00003051,0.00002340,-0.00001341,0.00
 000320,-0.00002506,-0.00001216,-0.00002656,-0.00000380,0.00001106,-0.0
 0002304,0.00130113,-0.00213859,-0.00061337,-0.01444570,-0.00257939,-0.
 00060148,0.00051394,-0.00000148,-0.00057786,-0.00969076,-0.00003566,0.
 00256686,-0.33327853,-0.04288276,0.01391387,0.00042260,0.00114167,0.00
 349999,-0.00009052,0.00000991,-0.00008456,0.00115244,0.00035261,-0.000
 57354,0.35512525,0.00027443,0.00015694,-0.00003310,-0.00103135,-0.0023
 0368,-0.00040716,-0.00017642,0.00006682,0.00004705,-0.00022784,-0.0005
 3097,0.00041803,0.00018465,0.00034907,-0.00111127,0.00001945,-0.000006
 44,0.00025153,-0.00000373,-0.00003441,-0.00000042,0.00002554,0.0000057
 4,-0.00000341,-0.00067411,0.00020673,-0.00071882,-0.00004069,-0.000050
 60,0.00004546,-0.00001055,0.00001768,0.00001869,-0.00002671,-0.0000511
 7,-0.00000582,-0.00003590,-0.00006039,-0.00000649,0.00003633,-0.000014
 04,-0.00000543,0.00000290,-0.00000348,-0.00003102,-0.00000697,0.000028
 49,0.00001086,0.00005360,0.00001393,0.00004068,0.00000877,0.00000442,-
 0.00000937,0.00000059,0.00000369,-0.00000540,0.00000989,-0.00004360,-0
 .00001548,-0.00003326,0.00003920,0.00010969,-0.00050632,0.00009065,-0.
 00004037,-0.00001611,-0.00001314,0.00003828,0.00000991,0.00006135,-0.0
 0008083,0.00005830,-0.00008752,0.00002746,0.00021333,0.00008763,0.0000
 1214,-0.00000284,-0.00003343,-0.00000630,-0.00000807,-0.00003663,-0.00
 000232,-0.00003319,-0.00002999,-0.00002628,-0.00004429,0.00000875,0.00
 003205,0.00230316,-0.00015095,-0.00709274,0.01977074,0.00230356,-0.002
 79726,0.00077476,0.00260641,0.00308790,-0.02601105,-0.00634241,-0.0035
 1466,-0.03888589,-0.03951142,-0.00235919,-0.00336443,0.00133551,-0.004
 38360,0.00003036,-0.00010561,0.00039251,0.00042197,-0.00148832,0.00276
 531,0.04662729,0.04312150,-0.00028882,-0.00007730,0.00022511,0.0004548
 6,0.00147057,0.00211108,0.00014262,-0.00024948,0.00017417,-0.00026358,
 0.00063673,-0.00031247,0.00043178,-0.00038561,-0.00116810,0.00005900,0
 .00011415,-0.00014834,-0.00001919,-0.00001413,-0.00001458,0.00000697,-
 0.00000765,-0.00004416,-0.00097141,-0.00099160,-0.00145989,-0.00005657
 ,-0.00004550,0.00008747,-0.00013796,0.00010393,-0.00007263,0.00004665,
 -0.00007831,0.00000854,0.00004995,-0.00001370,0.00001679,0.00001868,-0
 .00009090,0.00000469,0.00001355,0.00002379,0.00000448,-0.00004178,0.00
 000966,0.00002949,-0.00002486,0.00001807,0.00001476,-0.00000060,0.0000
 0690,-0.00000076,-0.00001410,0.00000212,-0.00000579,-0.00000628,0.0000
 0297,-0.00000882,0.00004217,0.00000572,-0.00010045,-0.00123896,0.00019
 016,0.00068321,-0.00017129,0.00007142,0.00010950,0.00003776,-0.0000543
 7,0.00005632,-0.00000703,0.00017179,0.00001305,0.00016238,-0.00061746,
 0.00003645,0.00005265,0.00000501,0.00005740,0.00002450,-0.00000333,0.0
 0002107,-0.00000747,-0.00002890,-0.00007494,-0.00000653,0.00000224,-0.
 00002821,-0.00183177,-0.00581518,0.00279208,0.01953931,0.00578547,0.00
 539540,-0.00062675,-0.00203678,-0.00314384,-0.01935471,-0.00049961,0.0
 0523470,0.01240240,-0.01172342,-0.05601678,0.00454898,-0.00375104,-0.0
 0273189,-0.00005732,0.00019045,-0.00012008,-0.00067657,0.00247476,-0.0
 0182139,-0.01392420,0.01576866,0.04922409,0.00009484,0.00002237,0.0000
 7161,0.00141633,-0.00045201,0.00093776,0.00044014,0.00004965,-0.000217
 01,0.00005706,-0.00018112,0.00007083,-0.00022694,-0.00005390,-0.000223
 44,-0.00065280,-0.00003715,-0.00004390,-0.00002271,0.00003844,0.000008
 47,0.00001441,0.00001709,0.00001517,0.00010315,0.00005534,0.00002202,0
 .00031366,0.00067626,-0.00097394,0.00000287,0.00002943,-0.00009113,0.0
 0004530,-0.00011108,0.00006147,0.00000754,-0.00003530,0.00002970,0.000
 02387,-0.00004081,0.00003349,-0.00001068,0.00002830,-0.00004257,-0.000
 04565,0.00001463,-0.00003439,0.00000508,0.00000292,0.00001212,0.000007
 70,0.00000153,-0.00000943,-0.00000728,0.00000293,0.00000082,0.00000315
 ,-0.00000519,-0.00000669,-0.00002605,0.00013577,0.00008205,0.00053731,
 -0.00025314,-0.00030924,-0.00000684,-0.00005929,0.00003241,0.00001828,
 -0.00001573,-0.00015071,0.00003687,-0.00020556,0.00018004,0.00003084,0
 .00011857,-0.00009710,0.00001138,-0.00000108,-0.00000200,0.00000232,-0
 .00001057,0.00001250,0.00000812,0.00000266,-0.00001804,-0.00001798,-0.
 00000112,0.00003883,0.00007422,-0.00302774,-0.00054240,-0.01323873,0.0
 1540868,0.02207935,0.01006228,-0.00715012,-0.00943969,-0.00037139,-0.0
 0055249,-0.00096692,-0.00622723,-0.00152185,-0.00204928,-0.16392784,0.
 08168829,0.10722820,0.00103100,0.00072594,-0.00070832,0.00007606,0.000
 09112,0.00007117,-0.00068594,0.00031376,0.00169356,0.17104426,0.000114
 28,-0.00000918,0.00000206,-0.00073896,-0.00187269,0.00024249,-0.000310
 22,-0.00011093,-0.00003783,0.00002562,0.00001033,0.00022981,-0.0003096
 9,-0.00013488,-0.00001539,0.00085249,0.00003784,-0.00034847,0.00002766
 ,-0.00007548,0.00002993,-0.00000539,-0.00000783,0.00000551,-0.00005533
 ,-0.00010446,-0.00008003,0.00002607,0.00020551,0.00098879,-0.00007564,
 0.00010888,0.00006000,-0.00007968,-0.00000967,-0.00008654,0.00003721,-
 0.00004229,-0.00004541,-0.00002953,-0.00003332,-0.00000137,-0.00001134
 ,0.00004279,0.00001799,0.00004962,0.00005374,0.00003449,-0.00000387,-0
 .00000290,-0.00000108,0.00000985,-0.00000681,0.00001474,0.00000165,-0.
 00001107,0.00000390,-0.00000008,0.00000369,0.00000557,0.00019868,-0.00
 003896,-0.00005700,0.00007574,0.00002880,-0.00051359,-0.00017720,0.000
 11891,-0.00004672,0.00004397,-0.00013496,0.00014715,0.00002933,0.00014
 578,0.00018958,0.00009788,-0.00031430,0.00014502,-0.00000223,-0.000036
 64,0.00001370,0.00000572,-0.00001592,0.00001396,-0.00001557,0.00001079
 ,0.00000829,0.00000368,-0.00004733,-0.00001583,-0.00625598,0.00216710,
 -0.00323415,-0.01040273,0.00468476,0.00417889,0.01232789,-0.01246306,-
 0.01796122,0.00222235,0.00192827,0.00219704,0.00088399,0.00125727,-0.0
 0426768,0.08660088,-0.09990135,-0.09063326,0.00065657,-0.00163605,0.00
 290277,0.00021298,-0.00017646,0.00027229,-0.00032222,0.00039012,-0.000
 57029,-0.08570844,0.10599198,-0.00000021,0.00004889,0.00004612,0.00111
 114,0.00181752,-0.00092376,-0.00020876,0.00005869,-0.00005273,-0.00003
 752,0.00001591,-0.00020169,0.00028591,0.00003544,0.00041046,-0.0004273
 1,0.00014685,-0.00043079,-0.00001053,0.00001159,-0.00003180,0.00000924
 ,-0.00003819,-0.00000686,0.00002210,0.00008003,0.00005524,-0.00149083,
 0.00072239,-0.00145318,0.00005395,-0.00012279,0.00003542,0.00004279,0.
 00009955,0.00004956,-0.00003818,0.00004060,0.00005390,0.00006026,0.000
 06572,-0.00002304,0.00005974,-0.00008957,-0.00001738,-0.00002246,-0.00
 007165,0.00003236,0.00000231,0.00001017,-0.00000533,-0.00001688,0.0000
 1565,0.00000423,-0.00000680,0.00000306,-0.00000984,-0.00001306,-0.0000
 0159,-0.00000823,-0.00029136,-0.00018953,-0.00002356,0.00149786,-0.000
 10291,-0.00036875,0.00021394,-0.00008140,0.00011148,0.00004616,0.00007
 943,-0.00018065,-0.00016447,-0.00066922,0.00029344,-0.00001961,0.00016
 660,-0.00035422,0.00001929,0.00000821,0.00003303,0.00005636,-0.0000107
 4,0.00003194,0.00002478,0.00002518,-0.00001918,-0.00003635,0.00005268,
 0.00001439,0.00027938,-0.00595668,0.00190106,0.00510499,0.00154073,0.0
 0403236,0.01482017,-0.00541673,-0.00717978,-0.00291599,-0.00146142,-0.
 00180703,-0.00215597,-0.00055083,0.00417699,0.10180787,-0.09899529,-0.
 16155028,-0.00083696,0.00277423,-0.00177509,-0.00002321,0.00013710,-0.
 00021597,-0.00004645,-0.00040957,0.00097327,-0.11675536,0.10621189,0.1
 6438391\\-0.00000611,0.00000642,0.00002313,-0.00000330,0.00001141,-0.0
 0000065,-0.00000492,-0.00000020,-0.00002404,0.00000342,-0.00000534,0.0
 0001219,-0.00001367,-0.00000409,-0.00002290,0.00000825,-0.00002298,0.0
 0001325,0.00001063,0.00001264,0.00001132,0.00000131,0.00000115,-0.0000
 0440,0.00000281,-0.00000516,0.00000138,0.00001116,0.00001375,0.0000138
 7,0.00000785,0.00000213,0.00000819,0.00001896,-0.00001553,-0.00000534,
 -0.00001157,-0.00001611,-0.00002048,-0.00000327,0.00002594,-0.00000301
 ,0.,-0.00001203,-0.00000591,-0.00000858,0.00002255,0.00000599,0.000005
 85,-0.00001773,0.00001279,-0.00000397,-0.00000289,-0.00000357,-0.00000
 194,0.00000331,0.00000299,0.00000499,-0.00001533,0.00001140,-0.0000002
 3,-0.00001132,0.00000263,-0.00002300,-0.00000643,-0.00000399,-0.000010
 44,0.00002416,-0.00001271,0.00001611,0.00000288,0.00002221,-0.00001096
 ,0.00000638,-0.00000806,0.00002060,-0.00000034,0.00001446,-0.00000810,
 -0.00001394,-0.00001623,-0.00000056,0.00000545,-0.00000298,0.00000479,
 -0.00000140,0.00000072,-0.00000635,-0.00001237,-0.00001434,-0.00000413
 ,-0.00000253,-0.00001067,0.00001160,0.00001623,-0.00001497,0.00000111,
 -0.00002632,0.00000423,0.00001359,0.00001557,0.00001864,-0.00000816,-0
 .00002228,0.00000602,0.00000632,0.00001141,0.00000204,0.00000158,0.000
 00275,0.00000506,-0.00000932,0.00001786,-0.00001040,-0.00000859,0.0000
 1526,-0.00000907,-0.00000376,-0.00000293,0.00000124\\\@


 THE UNDERLYING PHYSICAL LAWS NECESSARY FOR THE 
 MATHEMATICAL THEORY OF A LARGE PART OF PHYSICS AND THE
 WHOLE OF CHEMISTRY ARE THUS COMPLETELY KNOWN, AND THE
 DIFFICULTY IS ONLY THAT THE EXACT APPLICATION OF THESE
 LAWS LEADS TO EQUATIONS MUCH TOO COMPLICATED 
 TO BE SOLUBLE.

                                        -- P. A. M. DIRAC, 1929
 Job cpu time:       0 days  2 hours 38 minutes 44.6 seconds.
 Elapsed time:       0 days  0 hours 20 minutes  4.9 seconds.
 File lengths (MBytes):  RWF=    693 Int=      0 D2E=      0 Chk=     14 Scr=      1
 Normal termination of Gaussian 16 at Tue May 25 23:35:17 2021.
