 Entering Gaussian System, Link 0=g16
 Initial command:
 /home/wangzhe/g16/l1.exe "/home/wangzhe/g16/Scratch/Gau-107559.inp" -scrdir="/home/wangzhe/g16/Scratch/"
 Default is to use a total of  16 processors:
                               16 via shared-memory
                                1 via Linda
 Entering Link 1 = /home/wangzhe/g16/l1.exe PID=    107562.
  
 Copyright (c) 1988-2017, Gaussian, Inc.  All Rights Reserved.
  
 This is part of the Gaussian(R) 16 program.  It is based on
 the Gaussian(R) 09 system (copyright 2009, Gaussian, Inc.),
 the Gaussian(R) 03 system (copyright 2003, Gaussian, Inc.),
 the Gaussian(R) 98 system (copyright 1998, Gaussian, Inc.),
 the Gaussian(R) 94 system (copyright 1995, Gaussian, Inc.),
 the Gaussian 92(TM) system (copyright 1992, Gaussian, Inc.),
 the Gaussian 90(TM) system (copyright 1990, Gaussian, Inc.),
 the Gaussian 88(TM) system (copyright 1988, Gaussian, Inc.),
 the Gaussian 86(TM) system (copyright 1986, Carnegie Mellon
 University), and the Gaussian 82(TM) system (copyright 1983,
 Carnegie Mellon University). Gaussian is a federally registered
 trademark of Gaussian, Inc.
  
 This software contains proprietary and confidential information,
 including trade secrets, belonging to Gaussian, Inc.
  
 This software is provided under written license and may be
 used, copied, transmitted, or stored only in accord with that
 written license.
  
 The following legend is applicable only to US Government
 contracts under FAR:
  
                    RESTRICTED RIGHTS LEGEND
  
 Use, reproduction and disclosure by the US Government is
 subject to restrictions as set forth in subparagraphs (a)
 and (c) of the Commercial Computer Software - Restricted
 Rights clause in FAR 52.227-19.
  
 Gaussian, Inc.
 340 Quinnipiac St., Bldg. 40, Wallingford CT 06492
  
  
 ---------------------------------------------------------------
 Warning -- This program may not be used in any manner that
 competes with the business of Gaussian, Inc. or will provide
 assistance to any competitor of Gaussian, Inc.  The licensee
 of this program is prohibited from giving any competitor of
 Gaussian, Inc. access to this program.  By using this program,
 the user acknowledges that Gaussian, Inc. is engaged in the
 business of creating and licensing software in the field of
 computational chemistry and represents and warrants to the
 licensee that it is not a competitor of Gaussian, Inc. and that
 it will not use this program in any manner prohibited above.
 ---------------------------------------------------------------
  

 Cite this work as:
 Gaussian 16, Revision B.01,
 M. J. Frisch, G. W. Trucks, H. B. Schlegel, G. E. Scuseria, 
 M. A. Robb, J. R. Cheeseman, G. Scalmani, V. Barone, 
 G. A. Petersson, H. Nakatsuji, X. Li, M. Caricato, A. V. Marenich, 
 J. Bloino, B. G. Janesko, R. Gomperts, B. Mennucci, H. P. Hratchian, 
 J. V. Ortiz, A. F. Izmaylov, J. L. Sonnenberg, D. Williams-Young, 
 F. Ding, F. Lipparini, F. Egidi, J. Goings, B. Peng, A. Petrone, 
 T. Henderson, D. Ranasinghe, V. G. Zakrzewski, J. Gao, N. Rega, 
 G. Zheng, W. Liang, M. Hada, M. Ehara, K. Toyota, R. Fukuda, 
 J. Hasegawa, M. Ishida, T. Nakajima, Y. Honda, O. Kitao, H. Nakai, 
 T. Vreven, K. Throssell, J. A. Montgomery, Jr., J. E. Peralta, 
 F. Ogliaro, M. J. Bearpark, J. J. Heyd, E. N. Brothers, K. N. Kudin, 
 V. N. Staroverov, T. A. Keith, R. Kobayashi, J. Normand, 
 K. Raghavachari, A. P. Rendell, J. C. Burant, S. S. Iyengar, 
 J. Tomasi, M. Cossi, J. M. Millam, M. Klene, C. Adamo, R. Cammi, 
 J. W. Ochterski, R. L. Martin, K. Morokuma, O. Farkas, 
 J. B. Foresman, and D. J. Fox, Gaussian, Inc., Wallingford CT, 2016.
 
 ******************************************
 Gaussian 16:  ES64L-G16RevB.01 20-Dec-2017
                15-Mar-2023 
 ******************************************
 %nprocshared=8
 Will use up to    8 processors via shared memory.
 %mem=10gb
 %chk=1_fluoro_3_ethylazulene_NICS.chk
 ----------------------------
 #p nmr=giao ub3lyp/6-31+g(d)
 ----------------------------
 1/38=1,172=1/1;
 2/12=2,17=6,18=5,40=1/2;
 3/5=1,6=6,7=11,11=2,25=1,30=1,74=-5,116=2/1,2,3,8;
 4//1;
 5/5=2,38=5/2;
 8/6=1,10=90,11=11/1;
 10/13=100,45=16/2;
 6/7=2,8=2,9=2,10=2,28=1/1;
 99/9=1/99;
 Leave Link    1 at Wed Mar 15 12:28:35 2023, MaxMem=  1342177280 cpu:               0.4 elap:               0.0
 (Enter /home/wangzhe/g16/l101.exe)
 --------------------------
 File Created by py.Aroma 3
 --------------------------
 Symbolic Z-matrix:
 Charge =  0 Multiplicity = 3
 C                    -0.17873  -0.38709  -0.19983 
 C                     0.69529   0.81016  -0.00322 
 C                     2.07272   0.86595   0.1662 
 H                     2.48199   1.86642   0.29189 
 C                     2.98194  -0.18308   0.19745 
 H                     4.02225   0.0922    0.3449 
 C                     2.72666  -1.5518    0.06203 
 H                     3.60726  -2.18851   0.12058 
 C                     1.52908  -2.22809  -0.13728 
 C                     0.23645  -1.70416  -0.25306 
 H                    -0.55248  -2.43905  -0.40665 
 C                    -1.50808   0.07483  -0.32619 
 C                    -1.49114   1.47023  -0.21572 
 H                    -2.35426   2.12217  -0.27092 
 C                    -0.17528   1.89438  -0.02533 
 H                     1.60521  -3.30913  -0.21359 
 C                    -2.73711  -0.77276  -0.48802 
 H                    -3.52942  -0.16619  -0.93946 
 H                    -2.54257  -1.58814  -1.19503 
 C                    -3.23915  -1.35753   0.83915 
 H                    -3.47791  -0.55804   1.54627 
 H                    -2.47445  -1.98883   1.30151 
 H                    -4.1382   -1.96276   0.6884 
 F                     0.20852   3.17041   0.115 
 Bq                   -0.41262   0.84783  -1.14409 
 Bq                   -0.65055   0.69717   0.83598 
 Bq                    1.55644  -0.55196  -1.01415 
 Bq                    1.31881  -0.69893   0.96624 
 Bq                   -0.53159   0.7725   -0.15406 
 Bq                    1.43763  -0.62545  -0.02396 
 
 ITRead=  0  0  0  0  0  0  0  0  0  0  0  0  0  0  0  0  0  0  0  0
 ITRead=  0  0  0  0  0  0  0  0  0  0
 MicOpt= -1 -1 -1 -1 -1 -1 -1 -1 -1 -1 -1 -1 -1 -1 -1 -1 -1 -1 -1 -1
 MicOpt= -1 -1 -1 -1 -1 -1 -1 -1 -1 -1
 NAtoms=     30 NQM=       30 NQMF=       0 NMMI=      0 NMMIF=      0
                NMic=       0 NMicF=      0.
                    Isotopes and Nuclear Properties:
 (Nuclear quadrupole moments (NQMom) in fm**2, nuclear magnetic moments (NMagM)
  in nuclear magnetons)

  Atom         1           2           3           4           5           6           7           8           9          10
 IAtWgt=          12          12          12           1          12           1          12           1          12          12
 AtmWgt=  12.0000000  12.0000000  12.0000000   1.0078250  12.0000000   1.0078250  12.0000000   1.0078250  12.0000000  12.0000000
 NucSpn=           0           0           0           1           0           1           0           1           0           0
 AtZEff=  -0.0000000  -0.0000000  -0.0000000  -0.0000000  -0.0000000  -0.0000000  -0.0000000  -0.0000000  -0.0000000  -0.0000000
 NQMom=    0.0000000   0.0000000   0.0000000   0.0000000   0.0000000   0.0000000   0.0000000   0.0000000   0.0000000   0.0000000
 NMagM=    0.0000000   0.0000000   0.0000000   2.7928460   0.0000000   2.7928460   0.0000000   2.7928460   0.0000000   0.0000000
 AtZNuc=   6.0000000   6.0000000   6.0000000   1.0000000   6.0000000   1.0000000   6.0000000   1.0000000   6.0000000   6.0000000

  Atom        11          12          13          14          15          16          17          18          19          20
 IAtWgt=           1          12          12           1          12           1          12           1           1          12
 AtmWgt=   1.0078250  12.0000000  12.0000000   1.0078250  12.0000000   1.0078250  12.0000000   1.0078250   1.0078250  12.0000000
 NucSpn=           1           0           0           1           0           1           0           1           1           0
 AtZEff=  -0.0000000  -0.0000000  -0.0000000  -0.0000000  -0.0000000  -0.0000000  -0.0000000  -0.0000000  -0.0000000  -0.0000000
 NQMom=    0.0000000   0.0000000   0.0000000   0.0000000   0.0000000   0.0000000   0.0000000   0.0000000   0.0000000   0.0000000
 NMagM=    2.7928460   0.0000000   0.0000000   2.7928460   0.0000000   2.7928460   0.0000000   2.7928460   2.7928460   0.0000000
 AtZNuc=   1.0000000   6.0000000   6.0000000   1.0000000   6.0000000   1.0000000   6.0000000   1.0000000   1.0000000   6.0000000

  Atom        21          22          23          24          25          26          27          28          29          30
 IAtWgt=           1           1           1          19           0           0           0           0           0           0
 AtmWgt=   1.0078250   1.0078250   1.0078250  18.9984032   0.0000000   0.0000000   0.0000000   0.0000000   0.0000000   0.0000000
 NucSpn=           1           1           1           1           0           0           0           0           0           0
 AtZEff=  -0.0000000  -0.0000000  -0.0000000  -0.0000000  -0.0000000  -0.0000000  -0.0000000  -0.0000000  -0.0000000  -0.0000000
 NQMom=    0.0000000   0.0000000   0.0000000   0.0000000   0.0000000   0.0000000   0.0000000   0.0000000   0.0000000   0.0000000
 NMagM=    2.7928460   2.7928460   2.7928460   2.6288670   0.0000000   0.0000000   0.0000000   0.0000000   0.0000000   0.0000000
 AtZNuc=   1.0000000   1.0000000   1.0000000   9.0000000   0.0000000   0.0000000   0.0000000   0.0000000   0.0000000   0.0000000
 Leave Link  101 at Wed Mar 15 12:28:35 2023, MaxMem=  1342177280 cpu:               0.3 elap:               0.0
 (Enter /home/wangzhe/g16/l202.exe)
                          Input orientation:                          
 ---------------------------------------------------------------------
 Center     Atomic      Atomic             Coordinates (Angstroms)
 Number     Number       Type             X           Y           Z
 ---------------------------------------------------------------------
      1          6           0       -0.178731   -0.387094   -0.199828
      2          6           0        0.695290    0.810159   -0.003219
      3          6           0        2.072722    0.865948    0.166201
      4          1           0        2.481988    1.866421    0.291889
      5          6           0        2.981937   -0.183078    0.197446
      6          1           0        4.022254    0.092200    0.344900
      7          6           0        2.726656   -1.551796    0.062028
      8          1           0        3.607259   -2.188507    0.120579
      9          6           0        1.529078   -2.228092   -0.137278
     10          6           0        0.236450   -1.704162   -0.253060
     11          1           0       -0.552476   -2.439048   -0.406645
     12          6           0       -1.508076    0.074833   -0.326189
     13          6           0       -1.491136    1.470226   -0.215718
     14          1           0       -2.354264    2.122168   -0.270919
     15          6           0       -0.175278    1.894378   -0.025331
     16          1           0        1.605207   -3.309132   -0.213586
     17          6           0       -2.737107   -0.772762   -0.488022
     18          1           0       -3.529418   -0.166192   -0.939457
     19          1           0       -2.542565   -1.588136   -1.195032
     20          6           0       -3.239150   -1.357532    0.839148
     21          1           0       -3.477909   -0.558035    1.546269
     22          1           0       -2.474453   -1.988832    1.301513
     23          1           0       -4.138203   -1.962763    0.688398
     24          9           0        0.208516    3.170409    0.115001
     25          0           0       -0.412623    0.847830   -1.144094
     26          0           0       -0.650550    0.697171    0.835980
     27          0           0        1.556443   -0.551958   -1.014152
     28          0           0        1.318814   -0.698932    0.966235
     29          0           0       -0.531586    0.772500   -0.154057
     30          0           0        1.437629   -0.625445   -0.023959
 ---------------------------------------------------------------------
                    Distance matrix (angstroms):
                    1          2          3          4          5
     1  C    0.000000
     2  C    1.495320   0.000000
     3  C    2.602524   1.388933   0.000000
     4  H    3.521298   2.096442   1.088229   0.000000
     5  C    3.192064   2.501108   1.388562   2.111709   0.000000
     6  H    4.263183   3.421307   2.105064   2.350125   1.086177
     7  C    3.141078   3.116013   2.506784   3.434662   1.398891
     8  H    4.204934   4.181733   3.418564   4.211653   2.102066
     9  C    2.511931   3.153434   3.156063   4.225785   2.530795
    10  C    1.381983   2.568027   3.186399   4.253055   3.170860
    11  H    2.095942   3.503858   4.259438   5.313472   4.236319
    12  C    1.412976   2.345173   3.700057   4.417286   4.527795
    13  C    2.274268   2.293753   3.634845   4.024966   4.786700
    14  H    3.321806   3.330587   4.622485   4.875602   5.831686
    15  C    2.288138   1.390650   2.479487   2.676280   3.785956
    16  H    3.423584   4.223833   4.218306   5.273576   3.440428
    17  C    2.603283   3.810777   5.123264   5.900212   5.790083
    18  H    3.438452   4.435985   5.802738   6.464111   6.609885
    19  H    2.832074   4.201897   5.401514   6.276227   5.867990
    20  C    3.374520   4.570370   5.797647   6.589749   6.363415
    21  H    3.736663   4.657087   5.894219   6.555290   6.609805
    22  H    3.176465   4.425375   5.487759   6.359923   5.852513
    23  H    4.353056   5.615166   6.844698   7.658120   7.355590
    24  F    3.592340   2.412821   2.964528   2.626852   4.352532
    25  Bq   1.572063   1.590750   2.809651   3.387971   3.792827
    26  Bq   1.571987   1.590065   2.809502   3.387621   3.791771
    27  Bq   1.923833   1.902349   1.915786   2.900161   1.906850
    28  Bq   1.923431   1.898942   1.912402   2.896334   1.903449
    29  Bq   1.212955   1.236687   2.625589   3.236844   3.658077
    30  Bq   1.643277   1.616309   1.632102   2.720265   1.621603
                    6          7          8          9         10
     6  H    0.000000
     7  C    2.112182   0.000000
     8  H    2.328984   1.088251   0.000000
     9  C    3.439793   1.389709   2.094491   0.000000
    10  C    4.232822   2.514681   3.425865   1.399570   0.000000
    11  H    5.282063   3.429224   4.200492   2.109485   1.089059
    12  C    5.570926   4.552976   5.611503   3.816210   2.492698
    13  C    5.710579   5.196107   6.284350   4.775500   3.614234
    14  H    6.720118   6.278902   7.367153   5.832921   4.620922
    15  C    4.583033   4.506103   5.567659   4.462300   3.629169
    16  H    4.209879   2.102817   2.318551   1.086400   2.109735
    17  C    6.865193   5.546364   6.528837   4.521210   3.124861
    18  H    7.664469   6.485471   7.493036   5.521169   4.125319
    19  H    6.949228   5.417214   6.317564   4.255193   2.936613
    20  C    7.421185   6.019343   6.933987   4.944419   3.659626
    21  H    7.623552   6.456559   7.408822   5.540157   4.283416
    22  H    6.888614   5.364593   6.198524   4.260942   3.137950
    23  H    8.422228   6.905615   7.769528   5.733255   4.482277
    24  F    4.906406   5.351921   6.345823   5.563393   4.888527
    25  Bq   4.738799   4.131345   5.194053   3.774278   2.779910
    26  Bq   4.737325   4.130663   5.193060   3.775602   2.781938
    27  Bq   2.888284   1.878094   2.858628   1.891846   1.910292
    28  Bq   2.884534   1.878027   2.858487   1.897441   1.915380
    29  Bq   4.631331   4.008140   5.096374   3.640078   2.594906
    30  Bq   2.707648   1.589689   2.677937   1.609249   1.630628
                   11         12         13         14         15
    11  H    0.000000
    12  C    2.690584   0.000000
    13  C    4.024917   1.399862   0.000000
    14  H    4.906073   2.216003   1.083081   0.000000
    15  C    4.366493   2.275436   1.395577   2.204582   0.000000
    16  H    2.334505   4.599612   5.694700   6.721586   5.502916
    17  C    2.748771   1.501707   2.580230   2.928194   3.727021
    18  H    3.783113   2.126032   2.712242   2.657917   4.041266
    19  H    2.303489   2.142550   3.379073   3.828289   4.370372
    20  C    3.152760   2.531066   3.487766   3.758136   4.550775
    21  H    3.988764   2.790495   3.341513   3.427570   4.403593
    22  H    2.610459   2.800359   3.903074   4.403102   4.703833
    23  H    3.779339   3.478326   4.428296   4.559538   5.575995
    24  F    5.684825   3.567061   2.426688   2.795637   1.339868
    25  Bq   3.371492   1.570513   1.553206   2.481198   1.550234
    26  Bq   3.374849   1.572670   1.552504   2.481629   1.549530
    27  Bq   2.894428   3.202723   3.743590   4.795516   3.156134
    28  Bq   2.900781   3.203183   3.741401   4.793814   3.152899
    29  Bq   3.221533   1.212395   1.188007   2.270994   1.184118
    30  Bq   2.719581   3.042846   3.606421   4.689224   2.991819
                   16         17         18         19         20
    16  H    0.000000
    17  C    5.036286   0.000000
    18  H    6.063772   1.095207   0.000000
    19  H    4.596637   1.096606   1.749606   0.000000
    20  C    5.327737   1.534726   2.160320   2.162475   0.000000
    21  H    6.041829   2.175600   2.516948   3.074200   1.093719
    22  H    4.547784   2.179507   3.075210   2.529414   1.094113
    23  H    5.967666   2.182461   2.499640   2.496741   1.094224
    24  F    6.636503   4.958723   5.120248   5.650521   5.736989
    25  Bq   4.713578   2.908604   3.283981   3.236229   4.097087
    26  Bq   4.715983   2.875309   3.490767   3.595464   3.304945
    27  Bq   2.871462   4.331298   5.101017   4.231814   5.203978
    28  Bq   2.878740   4.309386   5.236490   4.513536   4.607053
    29  Bq   4.607510   2.713612   3.238054   3.271126   3.585303
    30  Bq   2.695592   4.203032   5.071549   4.259123   4.811774
                   21         22         23         24         25
    21  H    0.000000
    22  H    1.764656   0.000000
    23  H    1.773469   1.773317   0.000000
    24  F    5.435030   5.934973   6.750719   0.000000
    25  Bq   4.313987   4.275370   5.013722   2.713947   0.000000
    26  Bq   3.173958   3.279932   4.388707   2.715642   2.000000
    27  Bq   5.648052   4.865700   6.108849   4.116784   2.419403
    28  Bq   4.833719   4.020588   5.608342   4.114506   3.137489
    29  Bq   3.652705   3.676734   4.604246   2.523908   1.000000
    30  Bq   5.160685   4.349722   5.778042   3.992310   2.616997
                   26         27         28         29         30
    26  Bq   0.000000
    27  Bq   3.139129   0.000000
    28  Bq   2.417533   2.000000   0.000000
    29  Bq   1.000000   2.617980   2.616132   0.000000
    30  Bq   2.617117   1.000000   1.000001   2.418467   0.000000
 Symmetry turned off:
 Cannot cope with ghost atoms or with translation vectors.
 Stoichiometry    C12H11F(3)
 Framework group  C1[X(C12H11F)]
 NumDoF:  NAt=    24 NAtoms=    30
 Deg. of freedom     0
 Full point group                 C1      NOp   1
 Rotational constants (GHZ):           1.0226349           0.7483761           0.4499324
 Leave Link  202 at Wed Mar 15 12:28:35 2023, MaxMem=  1342177280 cpu:               0.0 elap:               0.0
 (Enter /home/wangzhe/g16/l301.exe)
 Standard basis: 6-31+G(d) (6D, 7F)
 Warning:  center  25 has no basis functions!
 Warning:  center  26 has no basis functions!
 Warning:  center  27 has no basis functions!
 Warning:  center  28 has no basis functions!
 Warning:  center  29 has no basis functions!
 Warning:  center  30 has no basis functions!
 Ernie: Thresh=  0.10000D-02 Tol=  0.10000D-05 Strict=F.
   269 basis functions,   460 primitive gaussians,   269 cartesian basis functions
    47 alpha electrons       45 beta electrons
       nuclear repulsion energy       734.7325934733 Hartrees.
 IExCor=  402 DFT=T Ex+Corr=B3LYP ExCW=0 ScaHFX=  0.200000
 ScaDFX=  0.800000  0.720000  1.000000  0.810000 ScalE2=  1.000000  1.000000
 IRadAn=      5 IRanWt=     -1 IRanGd=            0 ICorTp=0 IEmpDi=  4
 NAtoms=   30 NActive=   30 NUniq=   30 SFac= 1.00D+00 NAtFMM=   60 NAOKFM=F Big=F
 Integral buffers will be    131072 words long.
 Raffenetti 2 integral format.
 Two-electron integral symmetry is turned off.
 Leave Link  301 at Wed Mar 15 12:28:35 2023, MaxMem=  1342177280 cpu:               0.1 elap:               0.0
 (Enter /home/wangzhe/g16/l302.exe)
 NPDir=0 NMtPBC=     1 NCelOv=     1 NCel=       1 NClECP=     1 NCelD=      1
         NCelK=      1 NCelE2=     1 NClLst=     1 CellRange=     0.0.
 One-electron integrals computed using PRISM.
 NBasis=   269 RedAO= T EigKep=  1.33D-06  NBF=   269
 NBsUse=   267 1.00D-06 EigRej=  8.28D-07 NBFU=   267
 Precomputing XC quadrature grid using
 IXCGrd= 4 IRadAn=           5 IRanWt=          -1 IRanGd=           0 AccXCQ= 0.00D+00.
 Generated NRdTot=       0 NPtTot=           0 NUsed=           0 NTot=          32
 NSgBfM=   268   268   268   268   268 MxSgAt=    30 MxSgA2=    24.
 Leave Link  302 at Wed Mar 15 12:28:35 2023, MaxMem=  1342177280 cpu:               1.0 elap:               0.1
 (Enter /home/wangzhe/g16/l303.exe)
 DipDrv:  MaxL=1.
 Leave Link  303 at Wed Mar 15 12:28:35 2023, MaxMem=  1342177280 cpu:               0.1 elap:               0.0
 (Enter /home/wangzhe/g16/l308.exe)
 Leave Link  308 at Wed Mar 15 12:28:35 2023, MaxMem=  1342177280 cpu:               0.1 elap:               0.0
 (Enter /home/wangzhe/g16/l401.exe)
 ExpMin= 4.38D-02 ExpMax= 7.00D+03 ExpMxC= 1.05D+03 IAcc=3 IRadAn=         5 AccDes= 0.00D+00
 Harris functional with IExCor=  402 and IRadAn=       5 diagonalized for initial guess.
 HarFok:  IExCor=  402 AccDes= 0.00D+00 IRadAn=         5 IDoV= 1 UseB2=F ITyADJ=14
 ICtDFT=  3500011 ScaDFX=  1.000000  1.000000  1.000000  1.000000
 FoFCou: FMM=F IPFlag=           0 FMFlag=      100000 FMFlg1=           0
         NFxFlg=           0 DoJE=T BraDBF=F KetDBF=T FulRan=T
         wScrn=  0.000000 ICntrl=       500 IOpCl=  0 I1Cent=   200000004 NGrid=           0
         NMat0=    1 NMatS0=      1 NMatT0=    0 NMatD0=    1 NMtDS0=    0 NMtDT0=    0
 Symmetry not used in FoFCou.
 Harris En= -563.674445583296    
 JPrj=0 DoOrth=F DoCkMO=F.
 Initial guess <Sx>= 0.0000 <Sy>= 0.0000 <Sz>= 1.0000 <S**2>= 2.0000 S= 1.0000
 Leave Link  401 at Wed Mar 15 12:28:36 2023, MaxMem=  1342177280 cpu:               6.0 elap:               0.8
 (Enter /home/wangzhe/g16/l502.exe)
 Two-electron integral symmetry not used.
 UHF open shell SCF:
 Using DIIS extrapolation, IDIIS=  1040.
 NGot=  1342177280 LenX=  1342027905 LenY=  1341955103
 Requested convergence on RMS density matrix=1.00D-08 within 128 cycles.
 Requested convergence on MAX density matrix=1.00D-06.
 Requested convergence on             energy=1.00D-06.
 No special actions if energy rises.
 Fock matrices will be formed incrementally for  20 cycles.

 Cycle   1  Pass 1  IDiag  1:
 FoFJK:  IHMeth= 1 ICntrl=       0 DoSepK=F KAlg= 0 I1Cent=           0 FoldK=F
 IRaf= 930000000 NMat=       1 IRICut=       1 DoRegI=T DoRafI=F ISym2E= 0 IDoP0=0 IntGTp=1.
 FoFCou: FMM=F IPFlag=           0 FMFlag=      100000 FMFlg1=           0
         NFxFlg=           0 DoJE=F BraDBF=F KetDBF=F FulRan=T
         wScrn=  0.000000 ICntrl=         0 IOpCl=  1 I1Cent=           0 NGrid=           0
         NMat0=    1 NMatS0=      1 NMatT0=    0 NMatD0=    1 NMtDS0=    0 NMtDT0=    0
 Symmetry not used in FoFCou.
 E= -563.327338114328    
 DIIS: error= 3.43D-02 at cycle   1 NSaved=   1.
 NSaved= 1 IEnMin= 1 EnMin= -563.327338114328     IErMin= 1 ErrMin= 3.43D-02
 ErrMax= 3.43D-02  0.00D+00 EMaxC= 1.00D-01 BMatC= 1.18D+00 BMatP= 1.18D+00
 IDIUse=3 WtCom= 6.57D-01 WtEn= 3.43D-01
 Coeff-Com:  0.100D+01
 Coeff-En:   0.100D+01
 Coeff:      0.100D+01
 Gap=     0.047 Goal=   None    Shift=    0.000
 Gap=     0.045 Goal=   None    Shift=    0.000
 GapD=    0.045 DampG=0.250 DampE=0.500 DampFc=0.2500 IDamp=-1.
 Damping current iteration by 2.50D-01
 RMSDP=7.67D-02 MaxDP=3.92D+00              OVMax= 3.69D-01

 Cycle   2  Pass 1  IDiag  1:
 RMSU=  1.79D-02    CP:  1.10D+00
 E= -563.443190456664     Delta-E=       -0.115852342336 Rises=F Damp=T
 DIIS: error= 1.76D-02 at cycle   2 NSaved=   2.
 NSaved= 2 IEnMin= 2 EnMin= -563.443190456664     IErMin= 2 ErrMin= 1.76D-02
 ErrMax= 1.76D-02  0.00D+00 EMaxC= 1.00D-01 BMatC= 2.99D-01 BMatP= 1.18D+00
 IDIUse=3 WtCom= 8.24D-01 WtEn= 1.76D-01
 Coeff-Com: -0.750D+00 0.175D+01
 Coeff-En:   0.000D+00 0.100D+01
 Coeff:     -0.618D+00 0.162D+01
 Gap=     0.138 Goal=   None    Shift=    0.000
 Gap=     0.089 Goal=   None    Shift=    0.000
 RMSDP=3.10D-02 MaxDP=3.09D+00 DE=-1.16D-01 OVMax= 3.47D-01

 Cycle   3  Pass 1  IDiag  1:
 RMSU=  1.18D-02    CP:  7.28D-01  2.52D-01
 E= -563.626004383805     Delta-E=       -0.182813927140 Rises=F Damp=F
 DIIS: error= 1.24D-02 at cycle   3 NSaved=   3.
 NSaved= 3 IEnMin= 3 EnMin= -563.626004383805     IErMin= 3 ErrMin= 1.24D-02
 ErrMax= 1.24D-02  0.00D+00 EMaxC= 1.00D-01 BMatC= 1.04D-01 BMatP= 2.99D-01
 IDIUse=3 WtCom= 8.76D-01 WtEn= 1.24D-01
 Coeff-Com: -0.423D+00 0.925D+00 0.499D+00
 Coeff-En:   0.000D+00 0.000D+00 0.100D+01
 Coeff:     -0.371D+00 0.810D+00 0.561D+00
 Gap=     0.071 Goal=   None    Shift=    0.000
 Gap=     0.084 Goal=   None    Shift=    0.000
 RMSDP=6.88D-03 MaxDP=2.65D-01 DE=-1.83D-01 OVMax= 1.42D-01

 Cycle   4  Pass 1  IDiag  1:
 RMSU=  6.18D-03    CP:  7.20D-01  2.75D-01  7.48D-01
 E= -563.645666850659     Delta-E=       -0.019662466855 Rises=F Damp=F
 DIIS: error= 7.24D-03 at cycle   4 NSaved=   4.
 NSaved= 4 IEnMin= 4 EnMin= -563.645666850659     IErMin= 4 ErrMin= 7.24D-03
 ErrMax= 7.24D-03  0.00D+00 EMaxC= 1.00D-01 BMatC= 3.81D-02 BMatP= 1.04D-01
 IDIUse=3 WtCom= 9.28D-01 WtEn= 7.24D-02
 Coeff-Com: -0.104D+00 0.217D+00 0.373D+00 0.513D+00
 Coeff-En:   0.000D+00 0.000D+00 0.313D+00 0.687D+00
 Coeff:     -0.961D-01 0.201D+00 0.369D+00 0.526D+00
 Gap=     0.070 Goal=   None    Shift=    0.000
 Gap=     0.081 Goal=   None    Shift=    0.000
 RMSDP=3.18D-03 MaxDP=1.41D-01 DE=-1.97D-02 OVMax= 7.11D-02

 Cycle   5  Pass 1  IDiag  1:
 RMSU=  1.89D-03    CP:  7.16D-01  2.31D-01  8.49D-01  6.61D-01
 E= -563.656969169562     Delta-E=       -0.011302318903 Rises=F Damp=F
 DIIS: error= 1.73D-03 at cycle   5 NSaved=   5.
 NSaved= 5 IEnMin= 5 EnMin= -563.656969169562     IErMin= 5 ErrMin= 1.73D-03
 ErrMax= 1.73D-03  0.00D+00 EMaxC= 1.00D-01 BMatC= 2.89D-03 BMatP= 3.81D-02
 IDIUse=3 WtCom= 9.83D-01 WtEn= 1.73D-02
 Coeff-Com: -0.241D-01 0.446D-01 0.175D+00 0.312D+00 0.493D+00
 Coeff-En:   0.000D+00 0.000D+00 0.000D+00 0.000D+00 0.100D+01
 Coeff:     -0.236D-01 0.439D-01 0.172D+00 0.306D+00 0.501D+00
 Gap=     0.070 Goal=   None    Shift=    0.000
 Gap=     0.082 Goal=   None    Shift=    0.000
 RMSDP=7.10D-04 MaxDP=4.58D-02 DE=-1.13D-02 OVMax= 1.73D-02

 Cycle   6  Pass 1  IDiag  1:
 RMSU=  4.70D-04    CP:  7.16D-01  2.42D-01  8.54D-01  6.97D-01  7.71D-01
 E= -563.657674632145     Delta-E=       -0.000705462583 Rises=F Damp=F
 DIIS: error= 5.52D-04 at cycle   6 NSaved=   6.
 NSaved= 6 IEnMin= 6 EnMin= -563.657674632145     IErMin= 6 ErrMin= 5.52D-04
 ErrMax= 5.52D-04  0.00D+00 EMaxC= 1.00D-01 BMatC= 3.39D-04 BMatP= 2.89D-03
 IDIUse=3 WtCom= 9.94D-01 WtEn= 5.52D-03
 Coeff-Com:  0.223D-02-0.732D-02 0.350D-01 0.781D-01 0.274D+00 0.618D+00
 Coeff-En:   0.000D+00 0.000D+00 0.000D+00 0.000D+00 0.302D-01 0.970D+00
 Coeff:      0.221D-02-0.728D-02 0.348D-01 0.777D-01 0.273D+00 0.620D+00
 Gap=     0.071 Goal=   None    Shift=    0.000
 Gap=     0.083 Goal=   None    Shift=    0.000
 RMSDP=2.79D-04 MaxDP=1.21D-02 DE=-7.05D-04 OVMax= 8.61D-03

 Cycle   7  Pass 1  IDiag  1:
 RMSU=  1.98D-04    CP:  7.16D-01  2.36D-01  8.59D-01  6.77D-01  7.90D-01
                    CP:  8.68D-01
 E= -563.657781602992     Delta-E=       -0.000106970846 Rises=F Damp=F
 DIIS: error= 2.73D-04 at cycle   7 NSaved=   7.
 NSaved= 7 IEnMin= 7 EnMin= -563.657781602992     IErMin= 7 ErrMin= 2.73D-04
 ErrMax= 2.73D-04  0.00D+00 EMaxC= 1.00D-01 BMatC= 6.49D-05 BMatP= 3.39D-04
 IDIUse=3 WtCom= 9.97D-01 WtEn= 2.73D-03
 Coeff-Com:  0.375D-02-0.780D-02-0.612D-02-0.102D-01 0.579D-01 0.324D+00
 Coeff-Com:  0.638D+00
 Coeff-En:   0.000D+00 0.000D+00 0.000D+00 0.000D+00 0.000D+00 0.000D+00
 Coeff-En:   0.100D+01
 Coeff:      0.374D-02-0.777D-02-0.611D-02-0.102D-01 0.577D-01 0.323D+00
 Coeff:      0.639D+00
 Gap=     0.071 Goal=   None    Shift=    0.000
 Gap=     0.083 Goal=   None    Shift=    0.000
 RMSDP=1.29D-04 MaxDP=5.30D-03 DE=-1.07D-04 OVMax= 5.13D-03

 Cycle   8  Pass 1  IDiag  1:
 RMSU=  1.13D-04    CP:  7.16D-01  2.35D-01  8.59D-01  6.82D-01  7.84D-01
                    CP:  9.48D-01  8.71D-01
 E= -563.657811306473     Delta-E=       -0.000029703481 Rises=F Damp=F
 DIIS: error= 2.03D-04 at cycle   8 NSaved=   8.
 NSaved= 8 IEnMin= 8 EnMin= -563.657811306473     IErMin= 8 ErrMin= 2.03D-04
 ErrMax= 2.03D-04  0.00D+00 EMaxC= 1.00D-01 BMatC= 2.48D-05 BMatP= 6.49D-05
 IDIUse=3 WtCom= 9.98D-01 WtEn= 2.03D-03
 Coeff-Com:  0.147D-02-0.171D-02-0.176D-01-0.408D-01-0.834D-01-0.620D-01
 Coeff-Com:  0.434D+00 0.770D+00
 Coeff-En:   0.000D+00 0.000D+00 0.000D+00 0.000D+00 0.000D+00 0.000D+00
 Coeff-En:   0.000D+00 0.100D+01
 Coeff:      0.147D-02-0.171D-02-0.175D-01-0.407D-01-0.832D-01-0.618D-01
 Coeff:      0.433D+00 0.771D+00
 Gap=     0.071 Goal=   None    Shift=    0.000
 Gap=     0.083 Goal=   None    Shift=    0.000
 RMSDP=1.10D-04 MaxDP=4.32D-03 DE=-2.97D-05 OVMax= 5.11D-03

 Cycle   9  Pass 1  IDiag  1:
 RMSU=  7.16D-05    CP:  7.15D-01  2.33D-01  8.59D-01  6.77D-01  8.14D-01
                    CP:  9.60D-01  1.03D+00  1.03D+00
 E= -563.657827872045     Delta-E=       -0.000016565572 Rises=F Damp=F
 DIIS: error= 1.15D-04 at cycle   9 NSaved=   9.
 NSaved= 9 IEnMin= 9 EnMin= -563.657827872045     IErMin= 9 ErrMin= 1.15D-04
 ErrMax= 1.15D-04  0.00D+00 EMaxC= 1.00D-01 BMatC= 7.67D-06 BMatP= 2.48D-05
 IDIUse=3 WtCom= 9.99D-01 WtEn= 1.15D-03
 Coeff-Com: -0.386D-04 0.102D-02-0.915D-02-0.228D-01-0.686D-01-0.127D+00
 Coeff-Com:  0.113D+00 0.498D+00 0.616D+00
 Coeff-En:   0.000D+00 0.000D+00 0.000D+00 0.000D+00 0.000D+00 0.000D+00
 Coeff-En:   0.000D+00 0.000D+00 0.100D+01
 Coeff:     -0.386D-04 0.102D-02-0.914D-02-0.228D-01-0.686D-01-0.127D+00
 Coeff:      0.113D+00 0.498D+00 0.616D+00
 Gap=     0.071 Goal=   None    Shift=    0.000
 Gap=     0.083 Goal=   None    Shift=    0.000
 RMSDP=4.42D-05 MaxDP=2.12D-03 DE=-1.66D-05 OVMax= 1.81D-03

 Cycle  10  Pass 1  IDiag  1:
 RMSU=  3.52D-05    CP:  7.15D-01  2.33D-01  8.59D-01  6.77D-01  8.12D-01
                    CP:  9.98D-01  1.10D+00  1.12D+00  8.54D-01
 E= -563.657832212579     Delta-E=       -0.000004340534 Rises=F Damp=F
 DIIS: error= 3.27D-05 at cycle  10 NSaved=  10.
 NSaved=10 IEnMin=10 EnMin= -563.657832212579     IErMin=10 ErrMin= 3.27D-05
 ErrMax= 3.27D-05  0.00D+00 EMaxC= 1.00D-01 BMatC= 1.07D-06 BMatP= 7.67D-06
 IDIUse=1 WtCom= 1.00D+00 WtEn= 0.00D+00
 Coeff-Com: -0.491D-03 0.104D-02 0.758D-03 0.120D-02-0.949D-02-0.486D-01
 Coeff-Com: -0.711D-01 0.199D-01 0.287D+00 0.819D+00
 Coeff:     -0.491D-03 0.104D-02 0.758D-03 0.120D-02-0.949D-02-0.486D-01
 Coeff:     -0.711D-01 0.199D-01 0.287D+00 0.819D+00
 Gap=     0.071 Goal=   None    Shift=    0.000
 Gap=     0.083 Goal=   None    Shift=    0.000
 RMSDP=2.48D-05 MaxDP=1.05D-03 DE=-4.34D-06 OVMax= 1.07D-03

 Cycle  11  Pass 1  IDiag  1:
 RMSU=  1.47D-05    CP:  7.15D-01  2.33D-01  8.60D-01  6.76D-01  8.09D-01
                    CP:  9.95D-01  1.16D+00  1.18D+00  9.83D-01  1.05D+00
 E= -563.657833039955     Delta-E=       -0.000000827376 Rises=F Damp=F
 DIIS: error= 1.69D-05 at cycle  11 NSaved=  11.
 NSaved=11 IEnMin=11 EnMin= -563.657833039955     IErMin=11 ErrMin= 1.69D-05
 ErrMax= 1.69D-05  0.00D+00 EMaxC= 1.00D-01 BMatC= 3.47D-07 BMatP= 1.07D-06
 IDIUse=1 WtCom= 1.00D+00 WtEn= 0.00D+00
 Coeff-Com: -0.265D-03 0.421D-03 0.170D-02 0.385D-02 0.451D-02-0.981D-02
 Coeff-Com: -0.552D-01-0.539D-01 0.707D-01 0.466D+00 0.572D+00
 Coeff:     -0.265D-03 0.421D-03 0.170D-02 0.385D-02 0.451D-02-0.981D-02
 Coeff:     -0.552D-01-0.539D-01 0.707D-01 0.466D+00 0.572D+00
 Gap=     0.071 Goal=   None    Shift=    0.000
 Gap=     0.083 Goal=   None    Shift=    0.000
 RMSDP=8.37D-06 MaxDP=3.12D-04 DE=-8.27D-07 OVMax= 3.47D-04

 Cycle  12  Pass 1  IDiag  1:
 RMSU=  6.25D-06    CP:  7.15D-01  2.33D-01  8.59D-01  6.76D-01  8.11D-01
                    CP:  9.91D-01  1.15D+00  1.20D+00  9.97D-01  1.10D+00
                    CP:  8.55D-01
 E= -563.657833185636     Delta-E=       -0.000000145681 Rises=F Damp=F
 DIIS: error= 7.82D-06 at cycle  12 NSaved=  12.
 NSaved=12 IEnMin=12 EnMin= -563.657833185636     IErMin=12 ErrMin= 7.82D-06
 ErrMax= 7.82D-06  0.00D+00 EMaxC= 1.00D-01 BMatC= 5.25D-08 BMatP= 3.47D-07
 IDIUse=1 WtCom= 1.00D+00 WtEn= 0.00D+00
 Coeff-Com: -0.208D-04-0.265D-04 0.553D-03 0.144D-02 0.477D-02 0.733D-02
 Coeff-Com: -0.888D-02-0.266D-01-0.492D-01-0.752D-02 0.261D+00 0.817D+00
 Coeff:     -0.208D-04-0.265D-04 0.553D-03 0.144D-02 0.477D-02 0.733D-02
 Coeff:     -0.888D-02-0.266D-01-0.492D-01-0.752D-02 0.261D+00 0.817D+00
 Gap=     0.071 Goal=   None    Shift=    0.000
 Gap=     0.083 Goal=   None    Shift=    0.000
 RMSDP=4.67D-06 MaxDP=2.17D-04 DE=-1.46D-07 OVMax= 2.80D-04

 Cycle  13  Pass 1  IDiag  1:
 RMSU=  3.03D-06    CP:  7.15D-01  2.33D-01  8.59D-01  6.76D-01  8.11D-01
                    CP:  9.92D-01  1.15D+00  1.21D+00  1.02D+00  1.12D+00
                    CP:  9.32D-01  1.25D+00
 E= -563.657833227701     Delta-E=       -0.000000042065 Rises=F Damp=F
 DIIS: error= 3.23D-06 at cycle  13 NSaved=  13.
 NSaved=13 IEnMin=13 EnMin= -563.657833227701     IErMin=13 ErrMin= 3.23D-06
 ErrMax= 3.23D-06  0.00D+00 EMaxC= 1.00D-01 BMatC= 1.22D-08 BMatP= 5.25D-08
 IDIUse=1 WtCom= 1.00D+00 WtEn= 0.00D+00
 Coeff-Com:  0.275D-04-0.746D-04-0.984D-04-0.975D-04 0.127D-02 0.404D-02
 Coeff-Com:  0.479D-02 0.958D-03-0.340D-01-0.754D-01 0.134D-01 0.351D+00
 Coeff-Com:  0.734D+00
 Coeff:      0.275D-04-0.746D-04-0.984D-04-0.975D-04 0.127D-02 0.404D-02
 Coeff:      0.479D-02 0.958D-03-0.340D-01-0.754D-01 0.134D-01 0.351D+00
 Coeff:      0.734D+00
 Gap=     0.071 Goal=   None    Shift=    0.000
 Gap=     0.083 Goal=   None    Shift=    0.000
 RMSDP=2.80D-06 MaxDP=1.77D-04 DE=-4.21D-08 OVMax= 1.65D-04

 Cycle  14  Pass 1  IDiag  1:
 RMSU=  1.66D-06    CP:  7.15D-01  2.33D-01  8.59D-01  6.76D-01  8.11D-01
                    CP:  9.93D-01  1.16D+00  1.21D+00  1.01D+00  1.15D+00
                    CP:  9.98D-01  1.25D+00  1.02D+00
 E= -563.657833240323     Delta-E=       -0.000000012622 Rises=F Damp=F
 DIIS: error= 2.40D-06 at cycle  14 NSaved=  14.
 NSaved=14 IEnMin=14 EnMin= -563.657833240323     IErMin=14 ErrMin= 2.40D-06
 ErrMax= 2.40D-06  0.00D+00 EMaxC= 1.00D-01 BMatC= 4.40D-09 BMatP= 1.22D-08
 IDIUse=1 WtCom= 1.00D+00 WtEn= 0.00D+00
 Coeff-Com: -0.430D-06 0.617D-05-0.215D-03-0.494D-03-0.775D-03-0.697D-03
 Coeff-Com:  0.447D-02 0.102D-01-0.383D-02-0.300D-01-0.719D-01-0.661D-01
 Coeff-Com:  0.344D+00 0.815D+00
 Coeff:     -0.430D-06 0.617D-05-0.215D-03-0.494D-03-0.775D-03-0.697D-03
 Coeff:      0.447D-02 0.102D-01-0.383D-02-0.300D-01-0.719D-01-0.661D-01
 Coeff:      0.344D+00 0.815D+00
 Gap=     0.071 Goal=   None    Shift=    0.000
 Gap=     0.083 Goal=   None    Shift=    0.000
 RMSDP=1.69D-06 MaxDP=8.04D-05 DE=-1.26D-08 OVMax= 1.65D-04

 Cycle  15  Pass 1  IDiag  1:
 RMSU=  1.00D-06    CP:  7.15D-01  2.33D-01  8.59D-01  6.76D-01  8.12D-01
                    CP:  9.93D-01  1.16D+00  1.21D+00  1.01D+00  1.15D+00
                    CP:  1.02D+00  1.33D+00  1.20D+00  1.36D+00
 E= -563.657833248197     Delta-E=       -0.000000007874 Rises=F Damp=F
 DIIS: error= 1.73D-06 at cycle  15 NSaved=  15.
 NSaved=15 IEnMin=15 EnMin= -563.657833248197     IErMin=15 ErrMin= 1.73D-06
 ErrMax= 1.73D-06  0.00D+00 EMaxC= 1.00D-01 BMatC= 1.95D-09 BMatP= 4.40D-09
 IDIUse=1 WtCom= 1.00D+00 WtEn= 0.00D+00
 Coeff-Com: -0.121D-04 0.300D-04-0.545D-04-0.182D-03-0.637D-03-0.187D-02
 Coeff-Com: -0.172D-03 0.457D-02 0.728D-02 0.158D-01-0.305D-01-0.133D+00
 Coeff-Com: -0.107D+00 0.337D+00 0.909D+00
 Coeff:     -0.121D-04 0.300D-04-0.545D-04-0.182D-03-0.637D-03-0.187D-02
 Coeff:     -0.172D-03 0.457D-02 0.728D-02 0.158D-01-0.305D-01-0.133D+00
 Coeff:     -0.107D+00 0.337D+00 0.909D+00
 Gap=     0.071 Goal=   None    Shift=    0.000
 Gap=     0.083 Goal=   None    Shift=    0.000
 RMSDP=1.43D-06 MaxDP=5.95D-05 DE=-7.87D-09 OVMax= 1.48D-04

 Cycle  16  Pass 1  IDiag  1:
 RMSU=  6.42D-07    CP:  7.15D-01  2.33D-01  8.60D-01  6.76D-01  8.12D-01
                    CP:  9.93D-01  1.16D+00  1.21D+00  1.01D+00  1.15D+00
                    CP:  1.01D+00  1.42D+00  1.41D+00  1.67D+00  1.49D+00
 E= -563.657833253335     Delta-E=       -0.000000005138 Rises=F Damp=F
 DIIS: error= 1.35D-06 at cycle  16 NSaved=  16.
 NSaved=16 IEnMin=16 EnMin= -563.657833253335     IErMin=16 ErrMin= 1.35D-06
 ErrMax= 1.35D-06  0.00D+00 EMaxC= 1.00D-01 BMatC= 1.12D-09 BMatP= 1.95D-09
 IDIUse=1 WtCom= 1.00D+00 WtEn= 0.00D+00
 Coeff-Com: -0.768D-05 0.138D-04 0.107D-03 0.204D-03 0.186D-03-0.868D-03
 Coeff-Com: -0.327D-02-0.311D-02 0.460D-02 0.311D-01 0.303D-01-0.281D-01
 Coeff-Com: -0.277D+00-0.319D+00 0.543D+00 0.102D+01
 Coeff:     -0.768D-05 0.138D-04 0.107D-03 0.204D-03 0.186D-03-0.868D-03
 Coeff:     -0.327D-02-0.311D-02 0.460D-02 0.311D-01 0.303D-01-0.281D-01
 Coeff:     -0.277D+00-0.319D+00 0.543D+00 0.102D+01
 Gap=     0.071 Goal=   None    Shift=    0.000
 Gap=     0.083 Goal=   None    Shift=    0.000
 RMSDP=1.66D-06 MaxDP=8.46D-05 DE=-5.14D-09 OVMax= 1.70D-04

 Cycle  17  Pass 1  IDiag  1:
 RMSU=  3.95D-07    CP:  7.15D-01  2.33D-01  8.60D-01  6.76D-01  8.12D-01
                    CP:  9.94D-01  1.16D+00  1.21D+00  1.01D+00  1.15D+00
                    CP:  1.02D+00  1.44D+00  1.62D+00  2.12D+00  2.20D+00
                    CP:  1.62D+00
 E= -563.657833257402     Delta-E=       -0.000000004066 Rises=F Damp=F
 DIIS: error= 8.44D-07 at cycle  17 NSaved=  17.
 NSaved=17 IEnMin=17 EnMin= -563.657833257402     IErMin=17 ErrMin= 8.44D-07
 ErrMax= 8.44D-07  0.00D+00 EMaxC= 1.00D-01 BMatC= 4.36D-10 BMatP= 1.12D-09
 IDIUse=1 WtCom= 1.00D+00 WtEn= 0.00D+00
 Coeff-Com:  0.921D-06-0.461D-05 0.872D-04 0.211D-03 0.448D-03 0.347D-03
 Coeff-Com: -0.189D-02-0.336D-02-0.221D-02 0.107D-01 0.322D-01 0.591D-01
 Coeff-Com: -0.910D-01-0.369D+00-0.171D+00 0.528D+00 0.101D+01
 Coeff:      0.921D-06-0.461D-05 0.872D-04 0.211D-03 0.448D-03 0.347D-03
 Coeff:     -0.189D-02-0.336D-02-0.221D-02 0.107D-01 0.322D-01 0.591D-01
 Coeff:     -0.910D-01-0.369D+00-0.171D+00 0.528D+00 0.101D+01
 Gap=     0.071 Goal=   None    Shift=    0.000
 Gap=     0.083 Goal=   None    Shift=    0.000
 RMSDP=1.29D-06 MaxDP=5.46D-05 DE=-4.07D-09 OVMax= 1.44D-04

 Cycle  18  Pass 1  IDiag  1:
 RMSU=  2.45D-07    CP:  7.15D-01  2.33D-01  8.60D-01  6.76D-01  8.12D-01
                    CP:  9.94D-01  1.17D+00  1.21D+00  1.00D+00  1.15D+00
                    CP:  1.03D+00  1.46D+00  1.73D+00  2.56D+00  2.84D+00
                    CP:  2.10D+00  1.41D+00
 E= -563.657833259340     Delta-E=       -0.000000001939 Rises=F Damp=F
 DIIS: error= 4.28D-07 at cycle  18 NSaved=  18.
 NSaved=18 IEnMin=18 EnMin= -563.657833259340     IErMin=18 ErrMin= 4.28D-07
 ErrMax= 4.28D-07  0.00D+00 EMaxC= 1.00D-01 BMatC= 1.51D-10 BMatP= 4.36D-10
 IDIUse=1 WtCom= 1.00D+00 WtEn= 0.00D+00
 Coeff-Com:  0.324D-05-0.746D-05-0.750D-05 0.122D-04 0.163D-03 0.545D-03
 Coeff-Com:  0.533D-03 0.885D-04-0.392D-02-0.902D-02 0.550D-03 0.433D-01
 Coeff-Com:  0.791D-01-0.393D-01-0.328D+00-0.238D+00 0.467D+00 0.103D+01
 Coeff:      0.324D-05-0.746D-05-0.750D-05 0.122D-04 0.163D-03 0.545D-03
 Coeff:      0.533D-03 0.885D-04-0.392D-02-0.902D-02 0.550D-03 0.433D-01
 Coeff:      0.791D-01-0.393D-01-0.328D+00-0.238D+00 0.467D+00 0.103D+01
 Gap=     0.071 Goal=   None    Shift=    0.000
 Gap=     0.083 Goal=   None    Shift=    0.000
 RMSDP=9.19D-07 MaxDP=5.27D-05 DE=-1.94D-09 OVMax= 1.03D-04

 Cycle  19  Pass 1  IDiag  1:
 RMSU=  3.52D-07    CP:  7.15D-01  2.33D-01  8.60D-01  6.76D-01  8.12D-01
                    CP:  9.94D-01  1.17D+00  1.22D+00  1.00D+00  1.15D+00
                    CP:  1.03D+00  1.50D+00  1.85D+00  2.77D+00  3.00D+00
                    CP:  2.55D+00  1.70D+00  1.30D+00
 E= -563.657833259924     Delta-E=       -0.000000000584 Rises=F Damp=F
 DIIS: error= 1.20D-07 at cycle  19 NSaved=  19.
 NSaved=19 IEnMin=19 EnMin= -563.657833259924     IErMin=19 ErrMin= 1.20D-07
 ErrMax= 1.20D-07  0.00D+00 EMaxC= 1.00D-01 BMatC= 3.05D-11 BMatP= 1.51D-10
 IDIUse=1 WtCom= 1.00D+00 WtEn= 0.00D+00
 Coeff-Com:  0.661D-06-0.165D-05-0.218D-04-0.388D-04-0.107D-04 0.145D-03
 Coeff-Com:  0.584D-03 0.839D-03-0.122D-02-0.584D-02-0.665D-02 0.723D-02
 Coeff-Com:  0.528D-01 0.663D-01-0.109D+00-0.220D+00-0.554D-02 0.480D+00
 Coeff-Com:  0.740D+00
 Coeff:      0.661D-06-0.165D-05-0.218D-04-0.388D-04-0.107D-04 0.145D-03
 Coeff:      0.584D-03 0.839D-03-0.122D-02-0.584D-02-0.665D-02 0.723D-02
 Coeff:      0.528D-01 0.663D-01-0.109D+00-0.220D+00-0.554D-02 0.480D+00
 Coeff:      0.740D+00
 Gap=     0.071 Goal=   None    Shift=    0.000
 Gap=     0.083 Goal=   None    Shift=    0.000
 RMSDP=2.32D-07 MaxDP=1.14D-05 DE=-5.84D-10 OVMax= 2.32D-05

 Cycle  20  Pass 1  IDiag  1:
 RMSU=  8.22D-08    CP:  7.15D-01  2.33D-01  8.60D-01  6.76D-01  8.12D-01
                    CP:  9.94D-01  1.17D+00  1.22D+00  1.00D+00  1.15D+00
                    CP:  1.03D+00  1.51D+00  1.88D+00  2.83D+00  3.00D+00
                    CP:  2.67D+00  1.82D+00  1.40D+00  1.17D+00
 E= -563.657833259967     Delta-E=       -0.000000000043 Rises=F Damp=F
 DIIS: error= 6.63D-08 at cycle  20 NSaved=  20.
 NSaved=20 IEnMin=20 EnMin= -563.657833259967     IErMin=20 ErrMin= 6.63D-08
 ErrMax= 6.63D-08  0.00D+00 EMaxC= 1.00D-01 BMatC= 6.96D-12 BMatP= 3.05D-11
 IDIUse=1 WtCom= 1.00D+00 WtEn= 0.00D+00
 Coeff-Com: -0.102D-05 0.191D-05-0.100D-04-0.251D-04-0.445D-04-0.534D-04
 Coeff-Com:  0.173D-03 0.434D-03 0.241D-03-0.116D-02-0.373D-02-0.542D-02
 Coeff-Com:  0.868D-02 0.449D-01 0.146D-01-0.581D-01-0.114D+00 0.120D-02
 Coeff-Com:  0.362D+00 0.749D+00
 Coeff:     -0.102D-05 0.191D-05-0.100D-04-0.251D-04-0.445D-04-0.534D-04
 Coeff:      0.173D-03 0.434D-03 0.241D-03-0.116D-02-0.373D-02-0.542D-02
 Coeff:      0.868D-02 0.449D-01 0.146D-01-0.581D-01-0.114D+00 0.120D-02
 Coeff:      0.362D+00 0.749D+00
 Gap=     0.071 Goal=   None    Shift=    0.000
 Gap=     0.083 Goal=   None    Shift=    0.000
 RMSDP=1.25D-07 MaxDP=7.28D-06 DE=-4.34D-11 OVMax= 1.04D-05

 Cycle  21  Pass 1  IDiag  1:
 Restarting incremental Fock formation.
 E= -563.657833259975     Delta-E=       -0.000000000008 Rises=F Damp=F
 DIIS: error= 1.63D-08 at cycle  21 NSaved=  20.
 NSaved=20 IEnMin=20 EnMin= -563.657833259975     IErMin=20 ErrMin= 1.63D-08
 ErrMax= 1.63D-08  0.00D+00 EMaxC= 1.00D-01 BMatC= 7.19D-13 BMatP= 6.96D-12
 IDIUse=1 WtCom= 1.00D+00 WtEn= 0.00D+00
 Coeff-Com: -0.305D-07 0.593D-08-0.182D-05-0.122D-04-0.366D-04-0.529D-04
 Coeff-Com:  0.120D-04 0.266D-03 0.616D-03-0.968D-04-0.268D-02-0.684D-02
 Coeff-Com:  0.240D-02 0.221D-01 0.243D-01-0.337D-01-0.801D-01-0.369D-01
 Coeff-Com:  0.210D+00 0.900D+00
 Coeff:     -0.305D-07 0.593D-08-0.182D-05-0.122D-04-0.366D-04-0.529D-04
 Coeff:      0.120D-04 0.266D-03 0.616D-03-0.968D-04-0.268D-02-0.684D-02
 Coeff:      0.240D-02 0.221D-01 0.243D-01-0.337D-01-0.801D-01-0.369D-01
 Coeff:      0.210D+00 0.900D+00
 Gap=     0.071 Goal=   None    Shift=    0.000
 Gap=     0.083 Goal=   None    Shift=    0.000
 RMSDP=3.80D-08 MaxDP=2.42D-06 DE=-7.96D-12 OVMax= 2.06D-06

 Cycle  22  Pass 1  IDiag  1:
 RMSU=  3.75D-08    CP:  1.00D+00
 E= -563.657833259974     Delta-E=        0.000000000002 Rises=F Damp=F
 DIIS: error= 7.57D-09 at cycle  22 NSaved=  20.
 NSaved=20 IEnMin=19 EnMin= -563.657833259975     IErMin=20 ErrMin= 7.57D-09
 ErrMax= 7.57D-09  0.00D+00 EMaxC= 1.00D-01 BMatC= 1.16D-13 BMatP= 7.19D-13
 IDIUse=1 WtCom= 1.00D+00 WtEn= 0.00D+00
 Coeff-Com:  0.162D-05 0.271D-05 0.588D-06-0.955D-05-0.505D-04-0.467D-04
 Coeff-Com:  0.851D-04 0.399D-03 0.398D-03-0.352D-03-0.348D-02-0.329D-02
 Coeff-Com:  0.653D-02 0.153D-01-0.403D-02-0.305D-01-0.451D-01 0.223D-01
 Coeff-Com:  0.369D+00 0.673D+00
 Coeff:      0.162D-05 0.271D-05 0.588D-06-0.955D-05-0.505D-04-0.467D-04
 Coeff:      0.851D-04 0.399D-03 0.398D-03-0.352D-03-0.348D-02-0.329D-02
 Coeff:      0.653D-02 0.153D-01-0.403D-02-0.305D-01-0.451D-01 0.223D-01
 Coeff:      0.369D+00 0.673D+00
 Gap=     0.071 Goal=   None    Shift=    0.000
 Gap=     0.083 Goal=   None    Shift=    0.000
 RMSDP=7.36D-09 MaxDP=2.56D-07 DE= 1.82D-12 OVMax= 4.34D-07

 SCF Done:  E(UB3LYP) =  -563.657833260     A.U. after   22 cycles
            NFock= 22  Conv=0.74D-08     -V/T= 2.0088
 <Sx>= 0.0000 <Sy>= 0.0000 <Sz>= 1.0000 <S**2>= 2.0070 S= 1.0023
 <L.S>=  0.00000000000    
 KE= 5.587310915049D+02 PE=-2.779831270521D+03 EE= 9.227097522824D+02
 Annihilation of the first spin contaminant:
 S**2 before annihilation     2.0070,   after     2.0000
 Leave Link  502 at Wed Mar 15 12:29:37 2023, MaxMem=  1342177280 cpu:             490.3 elap:              61.5
 (Enter /home/wangzhe/g16/l801.exe)
 DoSCS=F DFT=T ScalE2(SS,OS)=  1.000000  1.000000
 Range of M.O.s used for correlation:     1   267
 NBasis=   269 NAE=    47 NBE=    45 NFC=     0 NFV=     0
 NROrb=    267 NOA=    47 NOB=    45 NVA=   220 NVB=   222

 **** Warning!!: The largest alpha MO coefficient is  0.20449892D+03


 **** Warning!!: The smallest alpha delta epsilon is  0.71406389D-01


 **** Warning!!: The largest beta MO coefficient is  0.21986032D+03


 **** Warning!!: The smallest beta delta epsilon is  0.83430250D-01

 Leave Link  801 at Wed Mar 15 12:29:37 2023, MaxMem=  1342177280 cpu:               0.1 elap:               0.0
 (Enter /home/wangzhe/g16/l1002.exe)
 Minotr:  UHF open shell wavefunction.
          Direct CPHF calculation.
          Differentiating once with respect to magnetic field using GIAOs.
          Electric field/nuclear overlap derivatives assumed to be zero.
          Requested convergence is 1.0D-08 RMS, and 1.0D-07 maximum.
          Secondary convergence is 1.0D-12 RMS, and 1.0D-12 maximum.
          NewPWx=T KeepS1=F KeepF1=F KeepIn=T MapXYZ=F SortEE=F KeepMc=T.
         8521 words used for storage of precomputed grid.
 Two-electron integral symmetry not used.
          MDV=    1342177280 using IRadAn=       1.
          Solving linear equations simultaneously, MaxMat=     384.
 FoFCou: FMM=F IPFlag=           0 FMFlag=      100000 FMFlg1=           0
         NFxFlg=           0 DoJE=F BraDBF=F KetDBF=T FulRan=T
         wScrn=  0.000000 ICntrl=      6100 IOpCl=  0 I1Cent=           7 NGrid=          30
         NMat0=    1 NMatS0=      1 NMatT0=    0 NMatD0=    1 NMtDS0=    0 NMtDT0=    0
 Symmetry not used in FoFCou.
 FoFJK:  IHMeth= 1 ICntrl=    6127 DoSepK=F KAlg= 0 I1Cent=           0 FoldK=F
 IRaf=         1 NMat=       1 IRICut=       1 DoRegI=T DoRafI=F ISym2E= 0 IDoP0=0 IntGTp=1.
          There are     3 degrees of freedom in the 1st order CPHF.  IDoFFX=0 NUNeed=     3.
      3 vectors produced by pass  0 Test12= 6.78D-13 3.33D-08 XBig12= 8.28D+02 1.01D+01.
 AX will form     3 AO Fock derivatives at one time.
      3 vectors produced by pass  1 Test12= 6.78D-13 3.33D-08 XBig12= 8.76D+00 1.09D+00.
      3 vectors produced by pass  2 Test12= 6.78D-13 3.33D-08 XBig12= 4.20D-02 6.14D-02.
      3 vectors produced by pass  3 Test12= 6.78D-13 3.33D-08 XBig12= 3.30D-04 6.68D-03.
      3 vectors produced by pass  4 Test12= 6.78D-13 3.33D-08 XBig12= 1.46D-06 3.71D-04.
      3 vectors produced by pass  5 Test12= 6.78D-13 3.33D-08 XBig12= 6.60D-09 3.58D-05.
      3 vectors produced by pass  6 Test12= 6.78D-13 3.33D-08 XBig12= 3.60D-11 2.73D-06.
      2 vectors produced by pass  7 Test12= 6.78D-13 3.33D-08 XBig12= 1.69D-13 1.43D-07.
 InvSVY:  IOpt=1 It=  1 EMax= 7.11D-15
 Solved reduced A of dimension    23 with     3 vectors.
 Calculating GIAO nuclear magnetic shielding tensors.
 SCF GIAO Magnetic shielding tensor (ppm):
      1  C    Isotropic =    40.6580   Anisotropy =    71.3625
   XX=     2.7025   YX=    13.3578   ZX=    -9.6799
   XY=    11.3378   YY=    32.8769   ZY=    -2.1815
   XZ=    -7.6477   YZ=    -9.6656   ZZ=    86.3947
   Eigenvalues:    -2.1449    35.8860    88.2330
      2  C    Isotropic =    48.3584   Anisotropy =    62.0184
   XX=    41.1058   YX=    27.7737   ZX=    -3.3748
   XY=    19.8822   YY=    15.3800   ZY=    -2.8197
   XZ=    -9.0947   YZ=     0.0526   ZZ=    88.5893
   Eigenvalues:     1.1184    54.2528    89.7040
      3  C    Isotropic =    78.2582   Anisotropy =    91.1955
   XX=    63.3896   YX=   -30.0285   ZX=   -11.7004
   XY=   -31.6475   YY=    34.3696   ZY=   -11.7244
   XZ=   -11.1488   YZ=    -8.3575   ZZ=   137.0155
   Eigenvalues:    13.0751    82.6443   139.0553
      4  H    Isotropic =    30.9191   Anisotropy =     8.0862
   XX=    29.6573   YX=    -1.5436   ZX=    -1.0001
   XY=    -1.6600   YY=    26.9985   ZY=    -1.0265
   XZ=    -1.0757   YZ=    -0.7611   ZZ=    36.1015
   Eigenvalues:    26.0890    30.3583    36.3099
      5  C    Isotropic =    39.6773   Anisotropy =   125.7322
   XX=   -37.1888   YX=   -24.9921   ZX=   -21.3901
   XY=   -30.6989   YY=    36.1926   ZY=   -10.2735
   XZ=   -22.7718   YZ=    -9.3781   ZZ=   120.0281
   Eigenvalues:   -49.9656    45.4987   123.4987
      6  H    Isotropic =    29.3124   Anisotropy =     8.7236
   XX=    24.8499   YX=    -1.3104   ZX=    -1.4144
   XY=    -1.6734   YY=    28.1999   ZY=    -0.8037
   XZ=    -1.4862   YZ=    -0.6033   ZZ=    34.8873
   Eigenvalues:    24.0440    28.7650    35.1281
      7  C    Isotropic =    79.0700   Anisotropy =    66.7892
   XX=    44.8720   YX=    36.0338   ZX=    -7.0086
   XY=    35.9918   YY=    69.6188   ZY=     0.4596
   XZ=    -7.9413   YZ=     1.3704   ZZ=   122.7191
   Eigenvalues:    18.7446    94.8692   123.5961
      8  H    Isotropic =    31.0635   Anisotropy =     6.5074
   XX=    28.7478   YX=     1.0434   ZX=    -0.7959
   XY=     1.0645   YY=    29.1674   ZY=    -0.3982
   XZ=    -0.8004   YZ=    -0.2128   ZZ=    35.2753
   Eigenvalues:    27.8579    29.9307    35.4018
      9  C    Isotropic =    39.5464   Anisotropy =   124.5181
   XX=    48.5033   YX=    -2.6460   ZX=    -9.2771
   XY=     2.5322   YY=   -50.5806   ZY=   -13.1989
   XZ=    -7.8623   YZ=   -11.0804   ZZ=   120.7165
   Eigenvalues:   -51.4410    47.5218   122.5585
     10  C    Isotropic =    76.0827   Anisotropy =    85.8276
   XX=    56.3188   YX=   -35.4376   ZX=   -12.5374
   XY=   -34.7974   YY=    41.6873   ZY=   -11.1017
   XZ=    -3.5471   YZ=   -22.1378   ZZ=   130.2421
   Eigenvalues:    10.4313    84.5157   133.3011
     11  H    Isotropic =    31.1305   Anisotropy =     8.7337
   XX=    29.8400   YX=    -3.2797   ZX=    -1.6363
   XY=    -2.7178   YY=    27.1931   ZY=    -0.8509
   XZ=    -2.3749   YZ=     0.1528   ZZ=    36.3585
   Eigenvalues:    25.0632    31.3754    36.9530
     12  C    Isotropic =    27.7512   Anisotropy =   163.5060
   XX=   -47.7880   YX=    -0.0263   ZX=   -21.2036
   XY=     7.4888   YY=    -3.1685   ZY=   -10.3523
   XZ=   -16.3811   YZ=    -7.6822   ZZ=   134.2101
   Eigenvalues:   -49.8772    -3.6244   136.7552
     13  C    Isotropic =    87.2043   Anisotropy =    41.6476
   XX=    63.8470   YX=    12.5696   ZX=    -3.3806
   XY=    20.4245   YY=    83.4218   ZY=     0.0374
   XZ=    -3.1376   YZ=    -4.5509   ZZ=   114.3442
   Eigenvalues:    54.4031    92.2405   114.9694
     14  H    Isotropic =    30.0946   Anisotropy =     5.2859
   XX=    27.8132   YX=     0.9005   ZX=    -0.7096
   XY=     0.9068   YY=    29.0277   ZY=    -0.6687
   XZ=    -0.6510   YZ=    -0.4259   ZZ=    33.4429
   Eigenvalues:    27.3116    29.3537    33.6185
     15  C    Isotropic =    14.8729   Anisotropy =    63.1510
   XX=    34.3842   YX=    -6.0651   ZX=    -3.1616
   XY=    -7.8562   YY=   -45.7045   ZY=    -8.6563
   XZ=    -3.4440   YZ=    -8.2724   ZZ=    55.9391
   Eigenvalues:   -47.0434    34.6885    56.9735
     16  H    Isotropic =    29.3589   Anisotropy =     8.5705
   XX=    29.3933   YX=    -0.3534   ZX=    -0.8208
   XY=    -0.2353   YY=    23.7925   ZY=    -0.8752
   XZ=    -0.8098   YZ=    -0.9171   ZZ=    34.8908
   Eigenvalues:    23.6978    29.3063    35.0725
     17  C    Isotropic =   168.0882   Anisotropy =    19.9665
   XX=   165.8805   YX=    12.4269   ZX=    -0.0772
   XY=     8.9687   YY=   157.2784   ZY=    -2.1504
   XZ=     2.1557   YZ=    -3.1556   ZZ=   181.1057
   Eigenvalues:   149.8024   173.0630   181.3992
     18  H    Isotropic =    31.5607   Anisotropy =     7.6013
   XX=    31.0425   YX=    -1.3299   ZX=     1.6468
   XY=    -0.6099   YY=    29.6701   ZY=    -3.0687
   XZ=     2.0227   YZ=    -3.7669   ZZ=    33.9695
   Eigenvalues:    27.7816    30.2722    36.6283
     19  H    Isotropic =    31.6984   Anisotropy =     9.5118
   XX=    29.0040   YX=     0.6218   ZX=    -1.3165
   XY=    -0.2374   YY=    29.4880   ZY=     2.3010
   XZ=    -3.5423   YZ=     2.9771   ZZ=    36.6032
   Eigenvalues:    27.6076    29.4479    38.0396
     20  C    Isotropic =   175.7614   Anisotropy =    24.2186
   XX=   169.0208   YX=     6.3885   ZX=    -7.1000
   XY=     6.9528   YY=   169.8118   ZY=    -7.2158
   XZ=     1.0503   YZ=    -6.7153   ZZ=   188.4514
   Eigenvalues:   162.4361   172.9409   191.9071
     21  H    Isotropic =    31.5502   Anisotropy =     8.0844
   XX=    28.5468   YX=    -0.9288   ZX=    -3.1573
   XY=    -1.1752   YY=    30.8506   ZY=     1.6732
   XZ=     0.4804   YZ=     3.9161   ZZ=    35.2532
   Eigenvalues:    28.1249    29.5859    36.9398
     22  H    Isotropic =    31.6805   Anisotropy =     8.5269
   XX=    30.6284   YX=    -2.3251   ZX=    -0.1332
   XY=    -2.8345   YY=    30.2228   ZY=    -3.3964
   XZ=     5.8113   YZ=    -1.4079   ZZ=    34.1901
   Eigenvalues:    27.8306    29.8457    37.3650
     23  H    Isotropic =    31.4847   Anisotropy =     7.9876
   XX=    33.5045   YX=     4.4145   ZX=    -0.8658
   XY=     4.5907   YY=    30.3999   ZY=    -0.7752
   XZ=     0.0974   YZ=    -0.7986   ZZ=    30.5496
   Eigenvalues:    27.1375    30.5068    36.8097
     24  F    Isotropic =   293.9612   Anisotropy =   248.5510
   XX=   196.5600   YX=    11.7327   ZX=   -30.7174
   XY=    14.1674   YY=   230.7214   ZY=   -15.3137
   XZ=   -32.7880   YZ=   -15.0421   ZZ=   454.6022
   Eigenvalues:   189.6708   232.5508   459.6619
     25  Bq   Isotropic =   -25.1605   Anisotropy =    46.8197
   XX=     4.2564   YX=    -4.0995   ZX=    10.0207
   XY=    -2.1901   YY=     0.4642   ZY=     5.9585
   XZ=    -2.1283   YZ=    12.9273   ZZ=   -80.2021
   Eigenvalues:   -81.5066    -0.0275     6.0527
     26  Bq   Isotropic =   -25.0929   Anisotropy =    46.6504
   XX=     1.6843   YX=    -1.8521   ZX=     9.9132
   XY=    -3.8221   YY=     1.6629   ZY=     6.1074
   XZ=    21.6855   YZ=    -1.7116   ZZ=   -78.6259
   Eigenvalues:   -81.7090     0.4230     6.0073
     27  Bq   Isotropic =   -31.2241   Anisotropy =    49.0223
   XX=    -0.3304   YX=    -0.9673   ZX=    10.9415
   XY=    -1.4741   YY=     0.2252   ZY=     8.0860
   XZ=    13.9224   YZ=     5.1926   ZZ=   -93.5671
   Eigenvalues:   -95.6703     0.5405     1.4574
     28  Bq   Isotropic =   -31.1853   Anisotropy =    49.2261
   XX=     0.3747   YX=    -1.4906   ZX=    12.2889
   XY=    -0.9302   YY=    -0.1152   ZY=     7.2966
   XZ=     8.8085   YZ=     8.9882   ZZ=   -93.8154
   Eigenvalues:   -95.6904     0.5023     1.6321
     29  Bq   Isotropic =   -31.5775   Anisotropy =    75.7787
   XX=    14.3094   YX=    -6.4799   ZX=    15.6006
   XY=    -6.1559   YY=     8.3726   ZY=     9.1305
   XZ=    15.8096   YZ=     8.2358   ZZ=  -117.4145
   Eigenvalues:  -119.9452     6.2710    18.9416
     30  Bq   Isotropic =   -41.0561   Anisotropy =    69.8346
   XX=     3.2660   YX=    -1.8554   ZX=    16.4995
   XY=    -1.6966   YY=     3.6789   ZY=    10.8880
   XZ=    16.3418   YZ=    10.2726   ZZ=  -130.1133
   Eigenvalues:  -132.9459     4.2772     5.5003
 g value of the free electron [g_e]: 0.20023193D+01
 relativistic mass correction [g_RMC]:-0.62732238D-03
 diamagnetic correction to g tensor [g_DC]:
   XX= 0.17467016D-03   YX= 0.44914492D-04   ZX= 0.28207727D-04
   XY= 0.85539565D-05   YY= 0.24880197D-03   ZY= 0.20088889D-04
   XZ= 0.29726375D-04   YZ=-0.47579503D-04   ZZ=-0.10452972D-03
 orbital Zeeman and spin-orbit coupling contribution to g tensor [g_OZ/SOC]:
   XX= 0.40959634D-02   YX=-0.55630843D-03   ZX= 0.60542659D-03
   XY=-0.54957910D-03   YY= 0.37078038D-02   ZY= 0.31250335D-03
   XZ= 0.65360011D-03   YZ= 0.16237121D-03   ZZ=-0.11273660D-02
 g tensor [g = g_e + g_RMC + g_DC + g_OZ/SOC]:
   XX= 0.20059626D+01   YX=-0.51139394D-03   ZX= 0.63363432D-03
   XY=-0.54102515D-03   YY= 0.20056486D+01   ZY= 0.33259224D-03
   XZ= 0.68332649D-03   YZ= 0.11479170D-03   ZZ= 0.20004601D+01
 g shifts relative to the free electron (ppm):
   xx=        -1952.3   yy=         3002.6   zz=         4063.1
 End of Minotr F.D. properties file   721 does not exist.
 End of Minotr F.D. properties file   722 does not exist.
 End of Minotr F.D. properties file   788 does not exist.
 Leave Link 1002 at Wed Mar 15 12:30:05 2023, MaxMem=  1342177280 cpu:             222.8 elap:              28.4
 (Enter /home/wangzhe/g16/l601.exe)
 Copying SCF densities to generalized density rwf, IOpCl= 1 IROHF=0.

 **********************************************************************

            Population analysis using the SCF Density.

 **********************************************************************

 Alpha  occ. eigenvalues --  -24.75153 -10.29868 -10.22611 -10.21440 -10.21363
 Alpha  occ. eigenvalues --  -10.20832 -10.20826 -10.20803 -10.19654 -10.19517
 Alpha  occ. eigenvalues --  -10.19333 -10.18916 -10.18475  -1.25780  -0.90697
 Alpha  occ. eigenvalues --   -0.83476  -0.81016  -0.78205  -0.75099  -0.72070
 Alpha  occ. eigenvalues --   -0.66195  -0.65394  -0.62791  -0.57250  -0.56400
 Alpha  occ. eigenvalues --   -0.53754  -0.51811  -0.50078  -0.48433  -0.47849
 Alpha  occ. eigenvalues --   -0.45986  -0.45554  -0.43787  -0.41973  -0.41016
 Alpha  occ. eigenvalues --   -0.39839  -0.38993  -0.38454  -0.37056  -0.36791
 Alpha  occ. eigenvalues --   -0.35070  -0.34450  -0.33765  -0.31567  -0.25742
 Alpha  occ. eigenvalues --   -0.22321  -0.13079
 Alpha virt. eigenvalues --   -0.05938  -0.00408   0.00846   0.01540   0.02498
 Alpha virt. eigenvalues --    0.02539   0.02989   0.04009   0.04796   0.05400
 Alpha virt. eigenvalues --    0.05807   0.05974   0.06999   0.07741   0.08302
 Alpha virt. eigenvalues --    0.08570   0.08797   0.09019   0.09754   0.10255
 Alpha virt. eigenvalues --    0.11439   0.11567   0.12197   0.12710   0.12954
 Alpha virt. eigenvalues --    0.13402   0.14205   0.14520   0.14891   0.15849
 Alpha virt. eigenvalues --    0.16525   0.16810   0.17327   0.17783   0.18056
 Alpha virt. eigenvalues --    0.18535   0.18978   0.19743   0.19818   0.20365
 Alpha virt. eigenvalues --    0.20665   0.20833   0.21751   0.22055   0.22968
 Alpha virt. eigenvalues --    0.23088   0.23665   0.24103   0.25287   0.25572
 Alpha virt. eigenvalues --    0.25892   0.26086   0.26737   0.27516   0.28250
 Alpha virt. eigenvalues --    0.29230   0.29872   0.30228   0.30717   0.32165
 Alpha virt. eigenvalues --    0.32475   0.33542   0.33659   0.34203   0.34574
 Alpha virt. eigenvalues --    0.35179   0.35563   0.36753   0.38124   0.41232
 Alpha virt. eigenvalues --    0.41710   0.42753   0.44877   0.45706   0.47740
 Alpha virt. eigenvalues --    0.48426   0.53178   0.56524   0.62979   0.63996
 Alpha virt. eigenvalues --    0.65173   0.65704   0.67268   0.67358   0.69207
 Alpha virt. eigenvalues --    0.69329   0.70516   0.71275   0.71878   0.72418
 Alpha virt. eigenvalues --    0.73721   0.74318   0.75821   0.76585   0.77686
 Alpha virt. eigenvalues --    0.78292   0.79363   0.80364   0.81084   0.83374
 Alpha virt. eigenvalues --    0.83682   0.86170   0.86842   0.87988   0.91625
 Alpha virt. eigenvalues --    0.92563   0.93951   0.96895   0.97248   0.98549
 Alpha virt. eigenvalues --    0.99252   1.00505   1.01926   1.03836   1.05433
 Alpha virt. eigenvalues --    1.06735   1.08993   1.09753   1.11003   1.12111
 Alpha virt. eigenvalues --    1.13948   1.15250   1.15961   1.18403   1.19783
 Alpha virt. eigenvalues --    1.21854   1.22783   1.25966   1.26909   1.27557
 Alpha virt. eigenvalues --    1.31519   1.33511   1.35421   1.36886   1.37887
 Alpha virt. eigenvalues --    1.40205   1.40565   1.42340   1.44296   1.48411
 Alpha virt. eigenvalues --    1.49848   1.52402   1.54737   1.57557   1.62045
 Alpha virt. eigenvalues --    1.63912   1.65810   1.66234   1.67933   1.69834
 Alpha virt. eigenvalues --    1.73706   1.75211   1.78384   1.79921   1.82218
 Alpha virt. eigenvalues --    1.82485   1.84151   1.86027   1.88523   1.91499
 Alpha virt. eigenvalues --    1.93486   1.94071   1.95438   1.97444   1.98985
 Alpha virt. eigenvalues --    2.01241   2.03783   2.04437   2.05592   2.10291
 Alpha virt. eigenvalues --    2.12527   2.13795   2.15778   2.16739   2.22069
 Alpha virt. eigenvalues --    2.23570   2.25129   2.27292   2.28472   2.32999
 Alpha virt. eigenvalues --    2.33716   2.36464   2.36777   2.38147   2.38847
 Alpha virt. eigenvalues --    2.45278   2.48144   2.50588   2.50935   2.53395
 Alpha virt. eigenvalues --    2.57808   2.58295   2.66243   2.69592   2.72795
 Alpha virt. eigenvalues --    2.73975   2.76960   2.79637   2.82248   2.84524
 Alpha virt. eigenvalues --    2.93927   3.00045   3.03137   3.23059   3.32631
 Alpha virt. eigenvalues --    3.35262   3.38780   4.19174   4.22012   4.29105
 Alpha virt. eigenvalues --    4.30256   4.30718   4.33500   4.35944   4.42035
 Alpha virt. eigenvalues --    4.50503   4.61469   4.69327   4.78518   6.35102
  Beta  occ. eigenvalues --  -24.74969 -10.29357 -10.22145 -10.21315 -10.21270
  Beta  occ. eigenvalues --  -10.20852 -10.20622 -10.20551 -10.19295 -10.19281
  Beta  occ. eigenvalues --  -10.19194 -10.18820 -10.18023  -1.25357  -0.89522
  Beta  occ. eigenvalues --   -0.82557  -0.80212  -0.77552  -0.74313  -0.71061
  Beta  occ. eigenvalues --   -0.65279  -0.64928  -0.62302  -0.56673  -0.55914
  Beta  occ. eigenvalues --   -0.53231  -0.51398  -0.48408  -0.48157  -0.47531
  Beta  occ. eigenvalues --   -0.45688  -0.45283  -0.43488  -0.40889  -0.40611
  Beta  occ. eigenvalues --   -0.39047  -0.38632  -0.36998  -0.36779  -0.36581
  Beta  occ. eigenvalues --   -0.34864  -0.33409  -0.31570  -0.28462  -0.23195
  Beta virt. eigenvalues --   -0.14852  -0.06036  -0.03350  -0.00317   0.00903
  Beta virt. eigenvalues --    0.01567   0.02588   0.02653   0.03178   0.04784
  Beta virt. eigenvalues --    0.05131   0.05745   0.05889   0.06097   0.07509
  Beta virt. eigenvalues --    0.08221   0.08389   0.08830   0.08858   0.09425
  Beta virt. eigenvalues --    0.10132   0.11595   0.11699   0.12156   0.12441
  Beta virt. eigenvalues --    0.12811   0.13464   0.14327   0.14527   0.14914
  Beta virt. eigenvalues --    0.15222   0.16584   0.16927   0.17237   0.17639
  Beta virt. eigenvalues --    0.17920   0.18331   0.18809   0.19086   0.19965
  Beta virt. eigenvalues --    0.20125   0.20636   0.20857   0.21105   0.21945
  Beta virt. eigenvalues --    0.22356   0.23112   0.23231   0.23824   0.24393
  Beta virt. eigenvalues --    0.25627   0.25813   0.26132   0.26267   0.26896
  Beta virt. eigenvalues --    0.27765   0.28431   0.29306   0.30207   0.30622
  Beta virt. eigenvalues --    0.31161   0.32421   0.32734   0.33804   0.33916
  Beta virt. eigenvalues --    0.34606   0.34694   0.35559   0.35991   0.37055
  Beta virt. eigenvalues --    0.38296   0.41336   0.41983   0.43106   0.45122
  Beta virt. eigenvalues --    0.46012   0.48116   0.48914   0.53573   0.57079
  Beta virt. eigenvalues --    0.63377   0.64411   0.65638   0.66770   0.67489
  Beta virt. eigenvalues --    0.67734   0.69642   0.70561   0.71447   0.71843
  Beta virt. eigenvalues --    0.72662   0.73041   0.74186   0.75735   0.76755
  Beta virt. eigenvalues --    0.77540   0.78831   0.79102   0.79788   0.80921
  Beta virt. eigenvalues --    0.81974   0.84008   0.84604   0.86602   0.87223
  Beta virt. eigenvalues --    0.89093   0.91795   0.92773   0.94224   0.97118
  Beta virt. eigenvalues --    0.97475   0.98710   0.99460   1.00640   1.02217
  Beta virt. eigenvalues --    1.04073   1.05759   1.07115   1.09200   1.10020
  Beta virt. eigenvalues --    1.11657   1.12434   1.14198   1.15843   1.16231
  Beta virt. eigenvalues --    1.18962   1.20318   1.22250   1.23343   1.27177
  Beta virt. eigenvalues --    1.27846   1.28887   1.32930   1.34241   1.36290
  Beta virt. eigenvalues --    1.37553   1.39242   1.41072   1.41556   1.42975
  Beta virt. eigenvalues --    1.45616   1.49115   1.50937   1.52834   1.56353
  Beta virt. eigenvalues --    1.58176   1.62607   1.64443   1.66452   1.66954
  Beta virt. eigenvalues --    1.68188   1.70347   1.73945   1.75658   1.78856
  Beta virt. eigenvalues --    1.80493   1.82673   1.83420   1.84782   1.86463
  Beta virt. eigenvalues --    1.89450   1.92133   1.94248   1.94941   1.95936
  Beta virt. eigenvalues --    1.98100   1.99479   2.01720   2.04921   2.05116
  Beta virt. eigenvalues --    2.06238   2.10907   2.13632   2.14755   2.16937
  Beta virt. eigenvalues --    2.18204   2.22610   2.24646   2.26173   2.28149
  Beta virt. eigenvalues --    2.29248   2.33452   2.34540   2.37066   2.37276
  Beta virt. eigenvalues --    2.38958   2.40176   2.46573   2.49203   2.51233
  Beta virt. eigenvalues --    2.51790   2.54767   2.59110   2.59595   2.66849
  Beta virt. eigenvalues --    2.70154   2.73399   2.75510   2.77809   2.80518
  Beta virt. eigenvalues --    2.83348   2.85155   2.94547   3.00424   3.03485
  Beta virt. eigenvalues --    3.23455   3.33008   3.35677   3.39232   4.19847
  Beta virt. eigenvalues --    4.22222   4.29679   4.31021   4.31349   4.34311
  Beta virt. eigenvalues --    4.36719   4.42859   4.50639   4.62285   4.70165
  Beta virt. eigenvalues --    4.79358   6.35330
          Condensed to atoms (all electrons):
               1          2          3          4          5          6
     1  C   14.661108  -0.813344   1.191176   0.036214   0.038795   0.018546
     2  C   -0.813344  10.174799  -1.244513   0.040467  -0.659447   0.030839
     3  C    1.191176  -1.244513   8.798184   0.254781  -0.392957  -0.008807
     4  H    0.036214   0.040467   0.254781   0.539301   0.021599  -0.007445
     5  C    0.038795  -0.659447  -0.392957   0.021599   6.567020   0.297712
     6  H    0.018546   0.030839  -0.008807  -0.007445   0.297712   0.543824
     7  C   -0.527095   0.043031  -0.702415   0.006892   0.717973  -0.029558
     8  H   -0.007000  -0.004583   0.010461  -0.000171  -0.003363  -0.008399
     9  C    0.183546  -0.635598   0.048995  -0.007347   0.060825   0.013586
    10  C   -4.502158   1.096982  -1.503126   0.009228  -0.272170  -0.029774
    11  H   -0.087847  -0.008490  -0.001539   0.000003   0.003461   0.000004
    12  C   -4.204171  -0.049384  -1.618295   0.008088   0.173097   0.000789
    13  C    0.178879   0.061267   0.181902   0.006508  -0.022521   0.001685
    14  H    0.058037   0.076219   0.009653  -0.000003   0.002090  -0.000000
    15  C    0.657725  -2.320393   1.265011  -0.103433  -0.091755  -0.005577
    16  H   -0.001937   0.012479  -0.019456   0.000004   0.002992  -0.000160
    17  C   -0.666868   0.009049   0.003416  -0.000410  -0.068758  -0.000155
    18  H    0.048222   0.007638   0.004644  -0.000000   0.000166   0.000000
    19  H   -0.096687  -0.025192  -0.002743   0.000000  -0.000881  -0.000000
    20  C    0.002242   0.030357  -0.009607   0.000049  -0.004966  -0.000010
    21  H    0.038734  -0.004217   0.001186  -0.000000  -0.000305   0.000000
    22  H   -0.086421  -0.001845  -0.002320  -0.000000   0.000969   0.000000
    23  H    0.014827   0.001223   0.000131   0.000000   0.000002   0.000000
    24  F   -0.007372   0.128867  -0.180059   0.006685  -0.065765   0.000012
    25  Bq   0.000000   0.000000   0.000000   0.000000   0.000000   0.000000
    26  Bq   0.000000   0.000000   0.000000   0.000000   0.000000   0.000000
    27  Bq   0.000000   0.000000   0.000000   0.000000   0.000000   0.000000
    28  Bq   0.000000   0.000000   0.000000   0.000000   0.000000   0.000000
    29  Bq   0.000000   0.000000   0.000000   0.000000   0.000000   0.000000
    30  Bq   0.000000   0.000000   0.000000   0.000000   0.000000   0.000000
               7          8          9         10         11         12
     1  C   -0.527095  -0.007000   0.183546  -4.502158  -0.087847  -4.204171
     2  C    0.043031  -0.004583  -0.635598   1.096982  -0.008490  -0.049384
     3  C   -0.702415   0.010461   0.048995  -1.503126  -0.001539  -1.618295
     4  H    0.006892  -0.000171  -0.007347   0.009228   0.000003   0.008088
     5  C    0.717973  -0.003363   0.060825  -0.272170   0.003461   0.173097
     6  H   -0.029558  -0.008399   0.013586  -0.029774   0.000004   0.000789
     7  C    6.335503   0.256150   0.627067  -0.541584   0.017205  -0.045857
     8  H    0.256150   0.558935  -0.003615   0.041978  -0.000182   0.002308
     9  C    0.627067  -0.003615   7.440179  -1.635900   0.177428  -0.182425
    10  C   -0.541584   0.041978  -1.635900  11.729127   0.154962   2.642131
    11  H    0.017205  -0.000182   0.177428   0.154962   0.571495   0.039877
    12  C   -0.045857   0.002308  -0.182425   2.642131   0.039877  11.744195
    13  C   -0.089488  -0.000441   0.154376  -0.496719   0.023722  -1.101205
    14  H   -0.000486   0.000000  -0.001374  -0.015022  -0.000005  -0.118922
    15  C   -0.015408   0.000286   0.072499  -0.850118  -0.001280  -0.601901
    16  H    0.025917  -0.008801   0.239831   0.031009  -0.008239  -0.000879
    17  C    0.055966   0.000371  -0.166186   0.332589  -0.047387  -0.862460
    18  H   -0.000739  -0.000000  -0.010146  -0.041023   0.000032  -0.207448
    19  H    0.003347  -0.000000   0.032531   0.062148   0.001217  -0.052238
    20  C    0.003230   0.000005  -0.025042   0.047815  -0.000614   0.016919
    21  H   -0.000320  -0.000000  -0.002284  -0.006885   0.000005   0.029868
    22  H   -0.001424   0.000000  -0.009882   0.012242   0.000392   0.013047
    23  H    0.000034  -0.000000  -0.000036  -0.001995   0.000071   0.012129
    24  F   -0.009579   0.000001   0.002940   0.032765   0.000018   0.063229
    25  Bq   0.000000   0.000000   0.000000   0.000000   0.000000   0.000000
    26  Bq   0.000000   0.000000   0.000000   0.000000   0.000000   0.000000
    27  Bq   0.000000   0.000000   0.000000   0.000000   0.000000   0.000000
    28  Bq   0.000000   0.000000   0.000000   0.000000   0.000000   0.000000
    29  Bq   0.000000   0.000000   0.000000   0.000000   0.000000   0.000000
    30  Bq   0.000000   0.000000   0.000000   0.000000   0.000000   0.000000
              13         14         15         16         17         18
     1  C    0.178879   0.058037   0.657725  -0.001937  -0.666868   0.048222
     2  C    0.061267   0.076219  -2.320393   0.012479   0.009049   0.007638
     3  C    0.181902   0.009653   1.265011  -0.019456   0.003416   0.004644
     4  H    0.006508  -0.000003  -0.103433   0.000004  -0.000410  -0.000000
     5  C   -0.022521   0.002090  -0.091755   0.002992  -0.068758   0.000166
     6  H    0.001685  -0.000000  -0.005577  -0.000160  -0.000155   0.000000
     7  C   -0.089488  -0.000486  -0.015408   0.025917   0.055966  -0.000739
     8  H   -0.000441   0.000000   0.000286  -0.008801   0.000371  -0.000000
     9  C    0.154376  -0.001374   0.072499   0.239831  -0.166186  -0.010146
    10  C   -0.496719  -0.015022  -0.850118   0.031009   0.332589  -0.041023
    11  H    0.023722  -0.000005  -0.001280  -0.008239  -0.047387   0.000032
    12  C   -1.101205  -0.118922  -0.601901  -0.000879  -0.862460  -0.207448
    13  C    8.473260   0.411452  -0.831642  -0.000335  -0.448674   0.045084
    14  H    0.411452   0.515954  -0.080237  -0.000000  -0.050855   0.002175
    15  C   -0.831642  -0.080237   8.858098   0.000274  -0.196342   0.011325
    16  H   -0.000335  -0.000000   0.000274   0.548733  -0.000544  -0.000000
    17  C   -0.448674  -0.050855  -0.196342  -0.000544   7.306555   0.471613
    18  H    0.045084   0.002175   0.011325  -0.000000   0.471613   0.522571
    19  H   -0.032878  -0.000005  -0.006795   0.000004   0.460898  -0.033304
    20  C   -0.076357   0.000671  -0.006853  -0.000370   0.086939  -0.028139
    21  H   -0.043824  -0.000017   0.001168   0.000000  -0.065081  -0.004585
    22  H    0.045219   0.000003  -0.003444  -0.000005  -0.035391   0.004425
    23  H   -0.005839  -0.000008   0.001482   0.000000  -0.086266  -0.002796
    24  F   -0.011569  -0.001571  -0.087095  -0.000000   0.004588  -0.000016
    25  Bq   0.000000   0.000000   0.000000   0.000000   0.000000   0.000000
    26  Bq   0.000000   0.000000   0.000000   0.000000   0.000000   0.000000
    27  Bq   0.000000   0.000000   0.000000   0.000000   0.000000   0.000000
    28  Bq   0.000000   0.000000   0.000000   0.000000   0.000000   0.000000
    29  Bq   0.000000   0.000000   0.000000   0.000000   0.000000   0.000000
    30  Bq   0.000000   0.000000   0.000000   0.000000   0.000000   0.000000
              19         20         21         22         23         24
     1  C   -0.096687   0.002242   0.038734  -0.086421   0.014827  -0.007372
     2  C   -0.025192   0.030357  -0.004217  -0.001845   0.001223   0.128867
     3  C   -0.002743  -0.009607   0.001186  -0.002320   0.000131  -0.180059
     4  H    0.000000   0.000049  -0.000000  -0.000000   0.000000   0.006685
     5  C   -0.000881  -0.004966  -0.000305   0.000969   0.000002  -0.065765
     6  H   -0.000000  -0.000010   0.000000   0.000000   0.000000   0.000012
     7  C    0.003347   0.003230  -0.000320  -0.001424   0.000034  -0.009579
     8  H   -0.000000   0.000005  -0.000000   0.000000  -0.000000   0.000001
     9  C    0.032531  -0.025042  -0.002284  -0.009882  -0.000036   0.002940
    10  C    0.062148   0.047815  -0.006885   0.012242  -0.001995   0.032765
    11  H    0.001217  -0.000614   0.000005   0.000392   0.000071   0.000018
    12  C   -0.052238   0.016919   0.029868   0.013047   0.012129   0.063229
    13  C   -0.032878  -0.076357  -0.043824   0.045219  -0.005839  -0.011569
    14  H   -0.000005   0.000671  -0.000017   0.000003  -0.000008  -0.001571
    15  C   -0.006795  -0.006853   0.001168  -0.003444   0.001482  -0.087095
    16  H    0.000004  -0.000370   0.000000  -0.000005   0.000000  -0.000000
    17  C    0.460898   0.086939  -0.065081  -0.035391  -0.086266   0.004588
    18  H   -0.033304  -0.028139  -0.004585   0.004425  -0.002796  -0.000016
    19  H    0.529335  -0.046832   0.004529  -0.004731  -0.002548   0.000021
    20  C   -0.046832   5.528253   0.391673   0.408426   0.408870   0.000452
    21  H    0.004529   0.391673   0.499308  -0.027988  -0.026960   0.000004
    22  H   -0.004731   0.408426  -0.027988   0.498596  -0.027626   0.000001
    23  H   -0.002548   0.408870  -0.026960  -0.027626   0.510052  -0.000000
    24  F    0.000021   0.000452   0.000004   0.000001  -0.000000   9.447525
    25  Bq   0.000000   0.000000   0.000000   0.000000   0.000000   0.000000
    26  Bq   0.000000   0.000000   0.000000   0.000000   0.000000   0.000000
    27  Bq   0.000000   0.000000   0.000000   0.000000   0.000000   0.000000
    28  Bq   0.000000   0.000000   0.000000   0.000000   0.000000   0.000000
    29  Bq   0.000000   0.000000   0.000000   0.000000   0.000000   0.000000
    30  Bq   0.000000   0.000000   0.000000   0.000000   0.000000   0.000000
              25         26         27         28         29         30
     1  C    0.000000   0.000000   0.000000   0.000000   0.000000   0.000000
     2  C    0.000000   0.000000   0.000000   0.000000   0.000000   0.000000
     3  C    0.000000   0.000000   0.000000   0.000000   0.000000   0.000000
     4  H    0.000000   0.000000   0.000000   0.000000   0.000000   0.000000
     5  C    0.000000   0.000000   0.000000   0.000000   0.000000   0.000000
     6  H    0.000000   0.000000   0.000000   0.000000   0.000000   0.000000
     7  C    0.000000   0.000000   0.000000   0.000000   0.000000   0.000000
     8  H    0.000000   0.000000   0.000000   0.000000   0.000000   0.000000
     9  C    0.000000   0.000000   0.000000   0.000000   0.000000   0.000000
    10  C    0.000000   0.000000   0.000000   0.000000   0.000000   0.000000
    11  H    0.000000   0.000000   0.000000   0.000000   0.000000   0.000000
    12  C    0.000000   0.000000   0.000000   0.000000   0.000000   0.000000
    13  C    0.000000   0.000000   0.000000   0.000000   0.000000   0.000000
    14  H    0.000000   0.000000   0.000000   0.000000   0.000000   0.000000
    15  C    0.000000   0.000000   0.000000   0.000000   0.000000   0.000000
    16  H    0.000000   0.000000   0.000000   0.000000   0.000000   0.000000
    17  C    0.000000   0.000000   0.000000   0.000000   0.000000   0.000000
    18  H    0.000000   0.000000   0.000000   0.000000   0.000000   0.000000
    19  H    0.000000   0.000000   0.000000   0.000000   0.000000   0.000000
    20  C    0.000000   0.000000   0.000000   0.000000   0.000000   0.000000
    21  H    0.000000   0.000000   0.000000   0.000000   0.000000   0.000000
    22  H    0.000000   0.000000   0.000000   0.000000   0.000000   0.000000
    23  H    0.000000   0.000000   0.000000   0.000000   0.000000   0.000000
    24  F    0.000000   0.000000   0.000000   0.000000   0.000000   0.000000
    25  Bq   0.000000   0.000000   0.000000   0.000000   0.000000   0.000000
    26  Bq   0.000000   0.000000   0.000000   0.000000   0.000000   0.000000
    27  Bq   0.000000   0.000000   0.000000   0.000000   0.000000   0.000000
    28  Bq   0.000000   0.000000   0.000000   0.000000   0.000000   0.000000
    29  Bq   0.000000   0.000000   0.000000   0.000000   0.000000   0.000000
    30  Bq   0.000000   0.000000   0.000000   0.000000   0.000000   0.000000
          Atomic-Atomic Spin Densities.
               1          2          3          4          5          6
     1  C    0.294484   0.089118  -0.040652   0.000388  -0.028182   0.001078
     2  C    0.089118   0.110203  -0.159274  -0.014190   0.012432  -0.000704
     3  C   -0.040652  -0.159274   0.347507   0.007862   0.119350  -0.002242
     4  H    0.000388  -0.014190   0.007862  -0.017204   0.003142   0.000281
     5  C   -0.028182   0.012432   0.119350   0.003142   0.049933   0.005478
     6  H    0.001078  -0.000704  -0.002242   0.000281   0.005478  -0.005562
     7  C    0.062900   0.006090  -0.058076   0.001954  -0.056519  -0.005589
     8  H   -0.001651   0.001367   0.000557   0.000003  -0.011636   0.000453
     9  C   -0.130985   0.053951  -0.006505   0.000509  -0.017390   0.001278
    10  C   -0.148633  -0.065446   0.077097  -0.000943  -0.004653   0.000283
    11  H   -0.014344   0.005179  -0.000503   0.000000   0.000074  -0.000000
    12  C    0.093575  -0.035603   0.020031  -0.000075  -0.013105   0.000155
    13  C   -0.030614  -0.075555   0.039787  -0.002835   0.016107   0.000044
    14  H   -0.001168   0.002911  -0.000943   0.000000  -0.000171   0.000000
    15  C   -0.091538   0.224912  -0.084939   0.004847  -0.003358  -0.000306
    16  H    0.001612  -0.000546   0.000737  -0.000000   0.000950   0.000002
    17  C    0.022892  -0.032636   0.007228   0.000105  -0.000430  -0.000010
    18  H   -0.002015   0.000206   0.000069  -0.000000  -0.000004   0.000000
    19  H    0.000814  -0.001214   0.000249  -0.000000  -0.000205   0.000000
    20  C    0.006604   0.001911  -0.000196  -0.000000   0.000114   0.000000
    21  H    0.000543  -0.000240   0.000062   0.000000  -0.000015  -0.000000
[...]
     1  C    0.000000   0.000000   0.000000   0.000000   0.000000   0.000000
     2  C    0.000000   0.000000   0.000000   0.000000   0.000000   0.000000
     3  C    0.000000   0.000000   0.000000   0.000000   0.000000   0.000000
     4  H    0.000000   0.000000   0.000000   0.000000   0.000000   0.000000
     5  C    0.000000   0.000000   0.000000   0.000000   0.000000   0.000000
     6  H    0.000000   0.000000   0.000000   0.000000   0.000000   0.000000
     7  C    0.000000   0.000000   0.000000   0.000000   0.000000   0.000000
     8  H    0.000000   0.000000   0.000000   0.000000   0.000000   0.000000
     9  C    0.000000   0.000000   0.000000   0.000000   0.000000   0.000000
    10  C    0.000000   0.000000   0.000000   0.000000   0.000000   0.000000
    11  H    0.000000   0.000000   0.000000   0.000000   0.000000   0.000000
    12  C    0.000000   0.000000   0.000000   0.000000   0.000000   0.000000
    13  C    0.000000   0.000000   0.000000   0.000000   0.000000   0.000000
    14  H    0.000000   0.000000   0.000000   0.000000   0.000000   0.000000
    15  C    0.000000   0.000000   0.000000   0.000000   0.000000   0.000000
    16  H    0.000000   0.000000   0.000000   0.000000   0.000000   0.000000
    17  C    0.000000   0.000000   0.000000   0.000000   0.000000   0.000000
    18  H    0.000000   0.000000   0.000000   0.000000   0.000000   0.000000
    19  H    0.000000   0.000000   0.000000   0.000000   0.000000   0.000000
    20  C    0.000000   0.000000   0.000000   0.000000   0.000000   0.000000
    21  H    0.000000   0.000000   0.000000   0.000000   0.000000   0.000000
    22  H    0.000000   0.000000   0.000000   0.000000   0.000000   0.000000
    23  H    0.000000   0.000000   0.000000   0.000000   0.000000   0.000000
    24  F    0.000000   0.000000   0.000000   0.000000   0.000000   0.000000
    25  Bq   0.000000   0.000000   0.000000   0.000000   0.000000   0.000000
    26  Bq   0.000000   0.000000   0.000000   0.000000   0.000000   0.000000
    27  Bq   0.000000   0.000000   0.000000   0.000000   0.000000   0.000000
    28  Bq   0.000000   0.000000   0.000000   0.000000   0.000000   0.000000
    29  Bq   0.000000   0.000000   0.000000   0.000000   0.000000   0.000000
    30  Bq   0.000000   0.000000   0.000000   0.000000   0.000000   0.000000
 Mulliken charges and spin densities:
               1          2
     1  C   -0.127151   0.086154
     2  C    0.053789   0.094263
     3  C   -0.083703   0.280279
     4  H    0.188992  -0.016384
     5  C   -0.303815   0.077006
     6  H    0.182888  -0.005362
     7  C   -0.128364   0.370050
     8  H    0.166059  -0.020627
     9  C   -0.373970   0.113869
    10  C   -0.296500   0.283641
    11  H    0.165691  -0.015766
    12  C    0.299508   0.317503
    13  C   -0.421865   0.080291
    14  H    0.192251  -0.007213
    15  C    0.334402   0.306376
    16  H    0.179483  -0.006705
    17  C   -0.036606   0.000913
    18  H    0.210301   0.002991
    19  H    0.210803   0.008366
    20  C   -0.727111   0.016133
    21  H    0.215991  -0.000505
    22  H    0.217755  -0.000721
    23  H    0.205253   0.004059
    24  F   -0.324082   0.031391
    25  Bq   0.000000   0.000000
    26  Bq   0.000000   0.000000
    27  Bq   0.000000   0.000000
    28  Bq   0.000000   0.000000
    29  Bq   0.000000   0.000000
    30  Bq   0.000000   0.000000
 Sum of Mulliken charges =  -0.00000   2.00000
 Mulliken charges and spin densities with hydrogens summed into heavy atoms:
               1          2
     1  C   -0.127151   0.086154
     2  C    0.053789   0.094263
     3  C    0.105288   0.263895
     5  C   -0.120927   0.071644
     7  C    0.037695   0.349422
     9  C   -0.194487   0.107164
    10  C   -0.130809   0.267875
    12  C    0.299508   0.317503
    13  C   -0.229614   0.073078
    15  C    0.334402   0.306376
    17  C    0.384499   0.012270
    20  C   -0.088112   0.018965
    24  F   -0.324082   0.031391
    25  Bq   0.000000   0.000000
    26  Bq   0.000000   0.000000
    27  Bq   0.000000   0.000000
    28  Bq   0.000000   0.000000
    29  Bq   0.000000   0.000000
    30  Bq   0.000000   0.000000
 Electronic spatial extent (au):  <R**2>=           2457.1806
 Charge=             -0.0000 electrons
 Dipole moment (field-independent basis, Debye):
    X=             -1.2288    Y=             -1.4242    Z=             -0.0820  Tot=              1.8828
 Quadrupole moment (field-independent basis, Debye-Ang):
   XX=            -67.9445   YY=            -76.4230   ZZ=            -81.2176
   XY=              0.7993   XZ=              1.4041   YZ=              0.6373
 Traceless Quadrupole moment (field-independent basis, Debye-Ang):
   XX=              7.2505   YY=             -1.2280   ZZ=             -6.0225
   XY=              0.7993   XZ=              1.4041   YZ=              0.6373
 Octapole moment (field-independent basis, Debye-Ang**2):
  XXX=              0.3777  YYY=             -2.8182  ZZZ=              2.0914  XYY=             -0.5345
  XXY=              7.3285  XXZ=              2.0581  XZZ=             -6.6222  YZZ=             10.4627
  YYZ=             -1.9870  XYZ=              0.0078
 Hexadecapole moment (field-independent basis, Debye-Ang**3):
 XXXX=          -1837.5370 YYYY=          -1212.5812 ZZZZ=           -176.7236 XXXY=             15.3207
 XXXZ=             23.7976 YYYX=            -11.5223 YYYZ=              7.6967 ZZZX=             -2.3802
 ZZZY=              4.1166 XXYY=           -500.8970 XXZZ=           -380.4617 YYZZ=           -241.0861
 XXYZ=              3.5013 YYXZ=              2.6134 ZZXY=             11.3991
 N-N= 7.347325934733D+02 E-N=-2.779831271698D+03  KE= 5.587310915049D+02
                          Isotropic Fermi Contact Couplings
        Atom                 a.u.       MegaHertz       Gauss      10(-4) cm-1
     1  C(13)              0.00763       4.29151       1.53132       1.43149
     2  C(13)              0.00141       0.79258       0.28281       0.26438
     3  C(13)              0.02129      11.96751       4.27030       3.99193
     4  H(1)              -0.00466     -10.41055      -3.71474      -3.47258
     5  C(13)             -0.00394      -2.21416      -0.79007      -0.73856
     6  H(1)              -0.00156      -3.47931      -1.24150      -1.16057
     7  C(13)              0.02911      16.36317       5.83878       5.45816
     8  H(1)              -0.00562     -12.55681      -4.48058      -4.18850
     9  C(13)             -0.00134      -0.75490      -0.26937      -0.25181
    10  C(13)              0.01771       9.95699       3.55290       3.32129
    11  H(1)              -0.00429      -9.57707      -3.41734      -3.19457
    12  C(13)              0.02895      16.27489       5.80729       5.42872
    13  C(13)             -0.00399      -2.24511      -0.80111      -0.74889
    14  H(1)              -0.00206      -4.60859      -1.64446      -1.53726
    15  C(13)              0.02956      16.61286       5.92788       5.54145
    16  H(1)              -0.00192      -4.28205      -1.52794      -1.42834
    17  C(13)             -0.00974      -5.47502      -1.95362      -1.82627
    18  H(1)               0.00129       2.88387       1.02904       0.96195
    19  H(1)               0.00428       9.56130       3.41171       3.18931
    20  C(13)              0.02135      12.00293       4.28294       4.00375
    21  H(1)              -0.00033      -0.74699      -0.26655      -0.24917
    22  H(1)              -0.00030      -0.66046      -0.23567      -0.22031
    23  H(1)               0.00123       2.74036       0.97783       0.91408
    24  F(19)              0.01537      32.34435      11.54127      10.78891
 --------------------------------------------------------
       Center         ----  Spin Dipole Couplings  ----
                      3XX-RR        3YY-RR        3ZZ-RR
 --------------------------------------------------------
     1   Atom       -0.114378     -0.114049      0.228427
     2   Atom       -0.084122     -0.101552      0.185674
     3   Atom       -0.133800     -0.144565      0.278365
     4   Atom       -0.010407      0.017539     -0.007132
     5   Atom       -0.054753     -0.041134      0.095887
     6   Atom        0.014293     -0.007036     -0.007257
     7   Atom       -0.171307     -0.178065      0.349372
     8   Atom        0.011730     -0.006655     -0.005076
     9   Atom       -0.050364     -0.069337      0.119702
    10   Atom       -0.125086     -0.127731      0.252817
    11   Atom        0.004945      0.001797     -0.006742
    12   Atom       -0.174426     -0.190371      0.364796
    13   Atom       -0.047049     -0.050736      0.097785
    14   Atom        0.008014     -0.001272     -0.006742
    15   Atom       -0.200902     -0.201611      0.402512
    16   Atom       -0.008231      0.015763     -0.007532
    17   Atom        0.003574     -0.007350      0.003776
    18   Atom        0.009068     -0.004298     -0.004769
    19   Atom        0.003332      0.001650     -0.004983
    20   Atom       -0.000198     -0.006714      0.006911
    21   Atom        0.003083     -0.003133      0.000051
    22   Atom        0.001447      0.000702     -0.002149
    23   Atom        0.003512     -0.000974     -0.002539
    24   Atom       -0.184300     -0.203369      0.387669
    25   Atom       -0.001546      0.018941     -0.017395
    26   Atom        0.001172      0.018117     -0.019289
    27   Atom        0.007477      0.006095     -0.013572
    28   Atom        0.007391      0.006007     -0.013398
    29   Atom       -0.002732      0.022822     -0.020090
    30   Atom        0.012153      0.010325     -0.022478
 --------------------------------------------------------
                        XY            XZ            YZ
 --------------------------------------------------------
     1   Atom       -0.003837     -0.044274     -0.028532
     2   Atom       -0.001991     -0.033996     -0.023676
     3   Atom       -0.000769     -0.050955     -0.032812
     4   Atom        0.013032      0.000611      0.003474
     5   Atom       -0.004001     -0.019236     -0.010817
     6   Atom        0.003080      0.002916      0.000424
     7   Atom        0.003054     -0.065104     -0.041108
     8   Atom       -0.025869      0.000029     -0.003303
     9   Atom        0.002516     -0.019221     -0.015204
    10   Atom       -0.003215     -0.047445     -0.031834
    11   Atom        0.017818      0.003026      0.002888
    12   Atom        0.004386     -0.059490     -0.038508
    13   Atom       -0.002148     -0.018347     -0.011650
    14   Atom       -0.013132      0.000811     -0.001163
    15   Atom        0.000605     -0.074150     -0.045292
    16   Atom       -0.003836     -0.000362      0.001289
    17   Atom        0.005771     -0.000948     -0.000437
    18   Atom        0.001770      0.003317      0.000615
    19   Atom        0.005973      0.003846      0.003851
    20   Atom        0.012132     -0.017355     -0.015257
    21   Atom        0.001687     -0.005832      0.000120
    22   Atom        0.003007     -0.002681     -0.005249
    23   Atom        0.004035     -0.000832     -0.000536
    24   Atom       -0.001547     -0.071821     -0.045713
    25   Atom        0.017667      0.009624      0.002342
    26   Atom        0.017672     -0.002255      0.007786
    27   Atom       -0.002703      0.001994      0.001152
    28   Atom       -0.002882      0.002682      0.001143
    29   Atom        0.024355      0.003998      0.006106
    30   Atom       -0.003712      0.004002      0.002162
 --------------------------------------------------------


 ---------------------------------------------------------------------------------
              Anisotropic Spin Dipole Couplings in Principal Axis System
 ---------------------------------------------------------------------------------

       Atom             a.u.   MegaHertz   Gauss  10(-4) cm-1        Axes

              Baa    -0.1257   -16.874    -6.021    -5.629  0.7771  0.6122  0.1465
     1 C(13)  Bbb    -0.1105   -14.830    -5.292    -4.947 -0.6171  0.7868 -0.0144
              Bcc     0.2363    31.704    11.313    10.575 -0.1240 -0.0792  0.9891
 
              Baa    -0.1048   -14.068    -5.020    -4.693  0.2720  0.9560  0.1097
     2 C(13)  Bbb    -0.0869   -11.661    -4.161    -3.890  0.9546 -0.2824  0.0945
              Bcc     0.1917    25.729     9.181     8.582 -0.1214 -0.0791  0.9895
 
              Baa    -0.1494   -20.046    -7.153    -6.687  0.4381  0.8908  0.1205
     3 C(13)  Bbb    -0.1376   -18.469    -6.590    -6.161  0.8909 -0.4481  0.0738
              Bcc     0.2870    38.515    13.743    12.847 -0.1197 -0.0751  0.9900
 
              Baa    -0.0156    -8.324    -2.970    -2.777  0.9241 -0.3724  0.0860
     4 H(1)   Bbb    -0.0075    -3.984    -1.421    -1.329 -0.1219 -0.0740  0.9898
              Bcc     0.0231    12.308     4.392     4.106  0.3622  0.9251  0.1137
 
              Baa    -0.0588    -7.895    -2.817    -2.633  0.9445  0.2981  0.1383
     5 C(13)  Bbb    -0.0402    -5.397    -1.926    -1.800 -0.3051  0.9518  0.0325
              Bcc     0.0991    13.292     4.743     4.434 -0.1219 -0.0729  0.9899
 
              Baa    -0.0076    -4.079    -1.456    -1.361 -0.1204 -0.0790  0.9896
     6 H(1)   Bbb    -0.0075    -3.986    -1.422    -1.330 -0.1478  0.9871  0.0608
              Bcc     0.0151     8.066     2.878     2.690  0.9816  0.1390  0.1306
 
              Baa    -0.1825   -24.485    -8.737    -8.167  0.5224  0.8429  0.1291
     7 C(13)  Bbb    -0.1781   -23.895    -8.526    -7.971  0.8440 -0.5326  0.0627
              Bcc     0.3605    48.381    17.263    16.138 -0.1216 -0.0762  0.9897
 
              Baa    -0.0253   -13.485    -4.812    -4.498  0.5679  0.8124  0.1321
     8 H(1)   Bbb    -0.0048    -2.574    -0.918    -0.859 -0.1210 -0.0763  0.9897
              Bcc     0.0301    16.059     5.730     5.357  0.8142 -0.5780  0.0549
 
              Baa    -0.0706    -9.474    -3.381    -3.160 -0.0534  0.9958  0.0742
     9 C(13)  Bbb    -0.0525    -7.041    -2.513    -2.349  0.9924  0.0446  0.1147
              Bcc     0.1231    16.516     5.893     5.509 -0.1109 -0.0797  0.9906
 
              Baa    -0.1377   -18.475    -6.592    -6.163  0.7127  0.6868  0.1426
    10 C(13)  Bbb    -0.1235   -16.574    -5.914    -5.528 -0.6910  0.7224 -0.0260
              Bcc     0.2612    35.049    12.506    11.691 -0.1209 -0.0800  0.9894
 
              Baa    -0.0145    -7.746    -2.764    -2.584 -0.6742  0.7384 -0.0119
    11 H(1)   Bbb    -0.0074    -3.923    -1.400    -1.309 -0.1147 -0.0889  0.9894
              Bcc     0.0219    11.669     4.164     3.892  0.7296  0.6684  0.1446
 
              Baa    -0.1930   -25.904    -9.243    -8.640 -0.0227  0.9975  0.0664
    12 C(13)  Bbb    -0.1809   -24.276    -8.662    -8.098  0.9939  0.0153  0.1094
              Bcc     0.3739    50.180    17.905    16.738 -0.1081 -0.0685  0.9918
 
              Baa    -0.0542    -7.272    -2.595    -2.426  0.5799  0.8040  0.1316
    13 C(13)  Bbb    -0.0467    -6.270    -2.237    -2.091  0.8056 -0.5900  0.0547
              Bcc     0.1009    13.542     4.832     4.517 -0.1217 -0.0743  0.9898
 
              Baa    -0.0106    -5.665    -2.022    -1.890  0.5679  0.8135  0.1252
    14 H(1)   Bbb    -0.0068    -3.604    -1.286    -1.202 -0.1172 -0.0706  0.9906
              Bcc     0.0174     9.270     3.308     3.092  0.8147 -0.5772  0.0552
 
              Baa    -0.2128   -28.559   -10.191    -9.526  0.8432  0.5192  0.1398
    15 C(13)  Bbb    -0.2020   -27.101    -9.670    -9.040 -0.5243  0.8516 -0.0005
              Bcc     0.4148    55.660    19.861    18.566 -0.1193 -0.0729  0.9902
 
              Baa    -0.0088    -4.722    -1.685    -1.575  0.9812  0.1463  0.1260
    16 H(1)   Bbb    -0.0076    -4.047    -1.444    -1.350 -0.1162 -0.0738  0.9905
              Bcc     0.0164     8.769     3.129     2.925 -0.1542  0.9865  0.0554
 
              Baa    -0.0098    -1.320    -0.471    -0.440 -0.3952  0.9186  0.0020
    17 C(13)  Bbb     0.0034     0.452     0.161     0.151  0.3333  0.1414  0.9322
              Bcc     0.0065     0.867     0.309     0.289  0.8560  0.3691 -0.3620
 
              Baa    -0.0056    -2.969    -1.059    -0.990 -0.1942 -0.1956  0.9613
    18 H(1)   Bbb    -0.0045    -2.400    -0.856    -0.801 -0.1670  0.9722  0.1641
              Bcc     0.0101     5.369     1.916     1.791  0.9666  0.1286  0.2215
 
              Baa    -0.0069    -3.699    -1.320    -1.234 -0.1791 -0.2962  0.9382
    19 H(1)   Bbb    -0.0035    -1.869    -0.667    -0.623 -0.6853  0.7218  0.0970
              Bcc     0.0104     5.568     1.987     1.857  0.7059  0.6255  0.3323
 
              Baa    -0.0168    -2.251    -0.803    -0.751 -0.2186  0.8854  0.4101
    20 C(13)  Bbb    -0.0143    -1.924    -0.687    -0.642  0.7991 -0.0788  0.5960
              Bcc     0.0311     4.175     1.490     1.393 -0.5601 -0.4580  0.6903
 
              Baa    -0.0051    -2.740    -0.978    -0.914  0.5641 -0.5141  0.6461
    21 H(1)   Bbb    -0.0026    -1.389    -0.496    -0.463  0.2328  0.8498  0.4729
              Bcc     0.0077     4.130     1.474     1.378  0.7922  0.1163 -0.5990
 
              Baa    -0.0062    -3.296    -1.176    -1.100  0.0492  0.5922  0.8043
    22 H(1)   Bbb    -0.0012    -0.663    -0.237    -0.221  0.8281 -0.4744  0.2986
              Bcc     0.0074     3.959     1.413     1.321  0.5584  0.6513 -0.5137
 
              Baa    -0.0033    -1.787    -0.638    -0.596 -0.5010  0.8636  0.0562
    23 H(1)   Bbb    -0.0027    -1.414    -0.505    -0.472  0.1277  0.0096  0.9918
              Bcc     0.0060     3.201     1.142     1.068  0.8560  0.5041 -0.1151
 
              Baa    -0.2098  -105.370   -37.599   -35.148  0.3826  0.9166  0.1161
    24 F(19)  Bbb    -0.1901   -95.487   -34.072   -31.851  0.9159 -0.3928  0.0828
              Bcc     0.3999   200.857    71.671    66.999 -0.1215 -0.0747  0.9898
 

 ---------------------------------------------------------------------------------

 Calculating spin-rotation constants.
 Leave Link  601 at Wed Mar 15 12:30:08 2023, MaxMem=  1342177280 cpu:               4.3 elap:               2.7
 (Enter /home/wangzhe/g16/l9999.exe)
 1\1\GINC-RHEL-HPC\SP\UB3LYP\6-31+G(d)\C12H11F1(3)\WANGZHE\15-Mar-2023\
 0\\#p nmr=giao ub3lyp/6-31+g(d)\\File Created by py.Aroma 3\\0,3\C,0,-
 0.178731,-0.387094,-0.199828\C,0,0.69529,0.810159,-0.003219\C,0,2.0727
 22,0.865948,0.166201\H,0,2.481988,1.866421,0.291889\C,0,2.981937,-0.18
 3078,0.197446\H,0,4.022254,0.0922,0.3449\C,0,2.726656,-1.551796,0.0620
 28\H,0,3.607259,-2.188507,0.120579\C,0,1.529078,-2.228092,-0.137278\C,
 0,0.23645,-1.704162,-0.25306\H,0,-0.552476,-2.439048,-0.406645\C,0,-1.
 508076,0.074833,-0.326189\C,0,-1.491136,1.470226,-0.215718\H,0,-2.3542
 64,2.122168,-0.270919\C,0,-0.175278,1.894378,-0.025331\H,0,1.605207,-3
 .309132,-0.213586\C,0,-2.737107,-0.772762,-0.488022\H,0,-3.529418,-0.1
 66192,-0.939457\H,0,-2.542565,-1.588136,-1.195032\C,0,-3.23915,-1.3575
 32,0.839148\H,0,-3.477909,-0.558035,1.546269\H,0,-2.474453,-1.988832,1
 .301513\H,0,-4.138203,-1.962763,0.688398\F,0,0.208516,3.170409,0.11500
 1\Bq,0,-0.412623,0.84783,-1.144094\Bq,0,-0.65055,0.697171,0.83598\Bq,0
 ,1.556443,-0.551958,-1.014152\Bq,0,1.318814,-0.698932,0.966235\Bq,0,-0
 .531586,0.7725,-0.154057\Bq,0,1.437629,-0.625445,-0.023959\\Version=ES
 64L-G16RevB.01\HF=-563.6578333\S2=2.006955\S2-1=0.\S2A=2.000029\RMSD=7
 .360e-09\Dipole=-0.4834482,-0.5603281,-0.0322626\Quadrupole=5.3905811,
 -0.9129806,-4.4776004,0.5942648,1.0439486,0.4737973\PG=C01 [X(C12H11F1
 )]\\@


 THERE IS NO SCIENCE WITHOUT FANCY, NOR ART WITHOUT FACTS.
     -- VLADIMIR NABAKOV
 Job cpu time:       0 days  0 hours 12 minutes  5.7 seconds.
 Elapsed time:       0 days  0 hours  1 minutes 33.7 seconds.
 File lengths (MBytes):  RWF=     74 Int=      0 D2E=      0 Chk=      8 Scr=      1
 Normal termination of Gaussian 16 at Wed Mar 15 12:30:08 2023.
