 Entering Gaussian System, Link 0=g16
 Initial command:
 /home/wangzhe/g16/l1.exe "/home/wangzhe/g16/Scratch/Gau-134266.inp" -scrdir="/home/wangzhe/g16/Scratch/"
 Default is to use a total of  16 processors:
                               16 via shared-memory
                                1 via Linda
 Entering Link 1 = /home/wangzhe/g16/l1.exe PID=    134271.
  
 Copyright (c) 1988-2017, Gaussian, Inc.  All Rights Reserved.
  
 This is part of the Gaussian(R) 16 program.  It is based on
 the Gaussian(R) 09 system (copyright 2009, Gaussian, Inc.),
 the Gaussian(R) 03 system (copyright 2003, Gaussian, Inc.),
 the Gaussian(R) 98 system (copyright 1998, Gaussian, Inc.),
 the Gaussian(R) 94 system (copyright 1995, Gaussian, Inc.),
 the Gaussian 92(TM) system (copyright 1992, Gaussian, Inc.),
 the Gaussian 90(TM) system (copyright 1990, Gaussian, Inc.),
 the Gaussian 88(TM) system (copyright 1988, Gaussian, Inc.),
 the Gaussian 86(TM) system (copyright 1986, Carnegie Mellon
 University), and the Gaussian 82(TM) system (copyright 1983,
 Carnegie Mellon University). Gaussian is a federally registered
 trademark of Gaussian, Inc.
  
 This software contains proprietary and confidential information,
 including trade secrets, belonging to Gaussian, Inc.
  
 This software is provided under written license and may be
 used, copied, transmitted, or stored only in accord with that
 written license.
  
 The following legend is applicable only to US Government
 contracts under FAR:
  
                    RESTRICTED RIGHTS LEGEND
  
 Use, reproduction and disclosure by the US Government is
 subject to restrictions as set forth in subparagraphs (a)
 and (c) of the Commercial Computer Software - Restricted
 Rights clause in FAR 52.227-19.
  
 Gaussian, Inc.
 340 Quinnipiac St., Bldg. 40, Wallingford CT 06492
  
  
 ---------------------------------------------------------------
 Warning -- This program may not be used in any manner that
 competes with the business of Gaussian, Inc. or will provide
 assistance to any competitor of Gaussian, Inc.  The licensee
 of this program is prohibited from giving any competitor of
 Gaussian, Inc. access to this program.  By using this program,
 the user acknowledges that Gaussian, Inc. is engaged in the
 business of creating and licensing software in the field of
 computational chemistry and represents and warrants to the
 licensee that it is not a competitor of Gaussian, Inc. and that
 it will not use this program in any manner prohibited above.
 ---------------------------------------------------------------
  

 Cite this work as:
 Gaussian 16, Revision B.01,
 M. J. Frisch, G. W. Trucks, H. B. Schlegel, G. E. Scuseria, 
 M. A. Robb, J. R. Cheeseman, G. Scalmani, V. Barone, 
 G. A. Petersson, H. Nakatsuji, X. Li, M. Caricato, A. V. Marenich, 
 J. Bloino, B. G. Janesko, R. Gomperts, B. Mennucci, H. P. Hratchian, 
 J. V. Ortiz, A. F. Izmaylov, J. L. Sonnenberg, D. Williams-Young, 
 F. Ding, F. Lipparini, F. Egidi, J. Goings, B. Peng, A. Petrone, 
 T. Henderson, D. Ranasinghe, V. G. Zakrzewski, J. Gao, N. Rega, 
 G. Zheng, W. Liang, M. Hada, M. Ehara, K. Toyota, R. Fukuda, 
 J. Hasegawa, M. Ishida, T. Nakajima, Y. Honda, O. Kitao, H. Nakai, 
 T. Vreven, K. Throssell, J. A. Montgomery, Jr., J. E. Peralta, 
 F. Ogliaro, M. J. Bearpark, J. J. Heyd, E. N. Brothers, K. N. Kudin, 
 V. N. Staroverov, T. A. Keith, R. Kobayashi, J. Normand, 
 K. Raghavachari, A. P. Rendell, J. C. Burant, S. S. Iyengar, 
 J. Tomasi, M. Cossi, J. M. Millam, M. Klene, C. Adamo, R. Cammi, 
 J. W. Ochterski, R. L. Martin, K. Morokuma, O. Farkas, 
 J. B. Foresman, and D. J. Fox, Gaussian, Inc., Wallingford CT, 2016.
 
 ******************************************
 Gaussian 16:  ES64L-G16RevB.01 20-Dec-2017
                16-Mar-2023 
 ******************************************
 %nprocshared=8
 Will use up to    8 processors via shared memory.
 %mem=10gb
 %chk=benzene_2D_NICS.chk
 --------------------------------------------------
 #p nmr=giao ub3lyp/6-311+g(2d,p) geom=connectivity
 --------------------------------------------------
 1/38=1,57=2,172=1/1;
 2/12=2,17=6,18=5,40=1/2;
 3/5=4,6=6,7=112,11=2,25=1,30=1,74=-5,116=2/1,2,3,8;
 4//1;
 5/5=2,38=5/2;
 8/6=1,10=90,11=11/1;
 10/13=100,45=16/2;
 6/7=2,8=2,9=2,10=2,28=1/1;
 99/9=1/99;
 Leave Link    1 at Thu Mar 16 13:05:15 2023, MaxMem=  1342177280 cpu:               0.3 elap:               0.0
 (Enter /home/wangzhe/g16/l101.exe)
 --------------------------
 File Created by py.Aroma 3
 --------------------------
 Symbolic Z-matrix:
 Charge =  0 Multiplicity = 1
 C                    -1.33924  -0.39585   0.00001 
 C                    -0.32669  -1.35773   0.00007 
 C                     1.01242  -0.96188  -0.00006 
 C                     1.3392    0.39597   0.00001 
 C                     0.3268    1.3577    0.00006 
 C                    -1.0125    0.9618   -0.00006 
 H                    -2.38133  -0.70401  -0.00007 
 H                    -0.58109  -2.41425   0.00008 
 H                     1.80038  -1.71023  -0.00015 
 H                     2.38137   0.70386   0.00001 
 H                     0.58095   2.41427   0.00002 
 H                    -1.80028   1.71035  -0.00006 
 Bq                   -3.88     -3.91      0. 
 Bq                   -3.88     -3.71      0. 
 Bq                   -3.88     -3.51      0. 
 Bq                   -3.88     -3.31      0. 
 Bq                   -3.88     -3.11      0. 
 Bq                   -3.88     -2.91      0. 
 Bq                   -3.88     -2.71      0. 
 Bq                   -3.88     -2.51      0. 
 Bq                   -3.88     -2.31      0. 
 Bq                   -3.88     -2.11      0. 
 Bq                   -3.88     -1.91      0. 
 Bq                   -3.88     -1.71      0. 
 Bq                   -3.88     -1.51      0. 
 Bq                   -3.88     -1.31      0. 
 Bq                   -3.88     -1.11      0. 
 Bq                   -3.88     -0.91      0. 
 Bq                   -3.88     -0.71      0. 
 Bq                   -3.88     -0.51      0. 
 Bq                   -3.88     -0.31      0. 
 Bq                   -3.88     -0.11      0. 
 Bq                   -3.88      0.09      0. 
 Bq                   -3.88      0.29      0. 
 Bq                   -3.88      0.49      0. 
 Bq                   -3.88      0.69      0. 
 Bq                   -3.88      0.89      0. 
 Bq                   -3.88      1.09      0. 
 Bq                   -3.88      1.29      0. 
 Bq                   -3.88      1.49      0. 
 Bq                   -3.88      1.69      0. 
 Bq                   -3.88      1.89      0. 
 Bq                   -3.88      2.09      0. 
 Bq                   -3.88      2.29      0. 
 Bq                   -3.88      2.49      0. 
 Bq                   -3.88      2.69      0. 
 Bq                   -3.88      2.89      0. 
 Bq                   -3.88      3.09      0. 
 Bq                   -3.88      3.29      0. 
 Bq                   -3.88      3.49      0. 
 Bq                   -3.88      3.69      0. 
 Bq                   -3.88      3.89      0. 
 Bq                   -3.68     -3.91      0. 
 Bq                   -3.68     -3.71      0. 
 Bq                   -3.68     -3.51      0. 
 Bq                   -3.68     -3.31      0. 
 Bq                   -3.68     -3.11      0. 
 Bq                   -3.68     -2.91      0. 
 Bq                   -3.68     -2.71      0. 
 Bq                   -3.68     -2.51      0. 
 Bq                   -3.68     -2.31      0. 
 Bq                   -3.68     -2.11      0. 
 Bq                   -3.68     -1.91      0. 
 Bq                   -3.68     -1.71      0. 
 Bq                   -3.68     -1.51      0. 
 Bq                   -3.68     -1.31      0. 
 Bq                   -3.68     -1.11      0. 
 Bq                   -3.68     -0.91      0. 
 Bq                   -3.68     -0.71      0. 
 Bq                   -3.68     -0.51      0. 
 Bq                   -3.68     -0.31      0. 
 Bq                   -3.68     -0.11      0. 
 Bq                   -3.68      0.09      0. 
 Bq                   -3.68      0.29      0. 
 Bq                   -3.68      0.49      0. 
 Bq                   -3.68      0.69      0. 
 Bq                   -3.68      0.89      0. 
 Bq                   -3.68      1.09      0. 
 Bq                   -3.68      1.29      0. 
 Bq                   -3.68      1.49      0. 
 Bq                   -3.68      1.69      0. 
 Bq                   -3.68      1.89      0. 
 Bq                   -3.68      2.09      0. 
 Bq                   -3.68      2.29      0. 
 Bq                   -3.68      2.49      0. 
 Bq                   -3.68      2.69      0. 
 Bq                   -3.68      2.89      0. 
 Bq                   -3.68      3.09      0. 
 Bq                   -3.68      3.29      0. 
 Bq                   -3.68      3.49      0. 
 Bq                   -3.68      3.69      0. 
 Bq                   -3.68      3.89      0. 
 Bq                   -3.48     -3.91      0. 
 Bq                   -3.48     -3.71      0. 
 Bq                   -3.48     -3.51      0. 
 Bq                   -3.48     -3.31      0. 
 Bq                   -3.48     -3.11      0. 
 Bq                   -3.48     -2.91      0. 
 Bq                   -3.48     -2.71      0. 
 Bq                   -3.48     -2.51      0. 
 Bq                   -3.48     -2.31      0. 
 Bq                   -3.48     -2.11      0. 
 Bq                   -3.48     -1.91      0. 
 Bq                   -3.48     -1.71      0. 
 Bq                   -3.48     -1.51      0. 
 Bq                   -3.48     -1.31      0. 
 Bq                   -3.48     -1.11      0. 
 Bq                   -3.48     -0.91      0. 
 Bq                   -3.48     -0.71      0. 
 Bq                   -3.48     -0.51      0. 
 Bq                   -3.48     -0.31      0. 
 Bq                   -3.48     -0.11      0. 
 Bq                   -3.48      0.09      0. 
 Bq                   -3.48      0.29      0. 
 Bq                   -3.48      0.49      0. 
 Bq                   -3.48      0.69      0. 
 Bq                   -3.48      0.89      0. 
 Bq                   -3.48      1.09      0. 
 Bq                   -3.48      1.29      0. 
 Bq                   -3.48      1.49      0. 
 Bq                   -3.48      1.69      0. 
 Bq                   -3.48      1.89      0. 
 Bq                   -3.48      2.09      0. 
 Bq                   -3.48      2.29      0. 
 Bq                   -3.48      2.49      0. 
 Bq                   -3.48      2.69      0. 
 Bq                   -3.48      2.89      0. 
 Bq                   -3.48      3.09      0. 
 Bq                   -3.48      3.29      0. 
 Bq                   -3.48      3.49      0. 
 Bq                   -3.48      3.69      0. 
 Bq                   -3.48      3.89      0. 
 Bq                   -3.28     -3.91      0. 
 Bq                   -3.28     -3.71      0. 
 Bq                   -3.28     -3.51      0. 
 Bq                   -3.28     -3.31      0. 
 Bq                   -3.28     -3.11      0. 
 Bq                   -3.28     -2.91      0. 
 Bq                   -3.28     -2.71      0. 
 Bq                   -3.28     -2.51      0. 
 Bq                   -3.28     -2.31      0. 
 Bq                   -3.28     -2.11      0. 
 Bq                   -3.28     -1.91      0. 
 Bq                   -3.28     -1.71      0. 
 Bq                   -3.28     -1.51      0. 
 Bq                   -3.28     -1.31      0. 
 Bq                   -3.28     -1.11      0. 
 Bq                   -3.28     -0.91      0. 
 Bq                   -3.28     -0.71      0. 
 Bq                   -3.28     -0.51      0. 
 Bq                   -3.28     -0.31      0. 
 Bq                   -3.28     -0.11      0. 
 Bq                   -3.28      0.09      0. 
 Bq                   -3.28      0.29      0. 
 Bq                   -3.28      0.49      0. 
 Bq                   -3.28      0.69      0. 
 Bq                   -3.28      0.89      0. 
 Bq                   -3.28      1.09      0. 
 Bq                   -3.28      1.29      0. 
 Bq                   -3.28      1.49      0. 
 Bq                   -3.28      1.69      0. 
 Bq                   -3.28      1.89      0. 
 Bq                   -3.28      2.09      0. 
 Bq                   -3.28      2.29      0. 
 Bq                   -3.28      2.49      0. 
 Bq                   -3.28      2.69      0. 
 Bq                   -3.28      2.89      0. 
 Bq                   -3.28      3.09      0. 
 Bq                   -3.28      3.29      0. 
 Bq                   -3.28      3.49      0. 
 Bq                   -3.28      3.69      0. 
 Bq                   -3.28      3.89      0. 
 Bq                   -3.08     -3.91      0. 
 Bq                   -3.08     -3.71      0. 
 Bq                   -3.08     -3.51      0. 
 Bq                   -3.08     -3.31      0. 
 Bq                   -3.08     -3.11      0. 
 Bq                   -3.08     -2.91      0. 
 Bq                   -3.08     -2.71      0. 
 Bq                   -3.08     -2.51      0. 
 Bq                   -3.08     -2.31      0. 
 Bq                   -3.08     -2.11      0. 
 Bq                   -3.08     -1.91      0. 
 Bq                   -3.08     -1.71      0. 
 Bq                   -3.08     -1.51      0. 
 Bq                   -3.08     -1.31      0. 
 Bq                   -3.08     -1.11      0. 
 Bq                   -3.08     -0.91      0. 
 Bq                   -3.08     -0.71      0. 
 Bq                   -3.08     -0.51      0. 
 Bq                   -3.08     -0.31      0. 
 Bq                   -3.08     -0.11      0. 
 Bq                   -3.08      0.09      0. 
 Bq                   -3.08      0.29      0. 
 Bq                   -3.08      0.49      0. 
 Bq                   -3.08      0.69      0. 
 Bq                   -3.08      0.89      0. 
 Bq                   -3.08      1.09      0. 
 Bq                   -3.08      1.29      0. 
 Bq                   -3.08      1.49      0. 
 Bq                   -3.08      1.69      0. 
 Bq                   -3.08      1.89      0. 
 Bq                   -3.08      2.09      0. 
 Bq                   -3.08      2.29      0. 
 Bq                   -3.08      2.49      0. 
 Bq                   -3.08      2.69      0. 
 Bq                   -3.08      2.89      0. 
 Bq                   -3.08      3.09      0. 
 Bq                   -3.08      3.29      0. 
 Bq                   -3.08      3.49      0. 
 Bq                   -3.08      3.69      0. 
 Bq                   -3.08      3.89      0. 
 Bq                   -2.88     -3.91      0. 
 Bq                   -2.88     -3.71      0. 
 Bq                   -2.88     -3.51      0. 
 Bq                   -2.88     -3.31      0. 
 Bq                   -2.88     -3.11      0. 
 Bq                   -2.88     -2.91      0. 
 Bq                   -2.88     -2.71      0. 
 Bq                   -2.88     -2.51      0. 
 Bq                   -2.88     -2.31      0. 
 Bq                   -2.88     -2.11      0. 
 Bq                   -2.88     -1.91      0. 
 Bq                   -2.88     -1.71      0. 
 Bq                   -2.88     -1.51      0. 
 Bq                   -2.88     -1.31      0. 
 Bq                   -2.88     -1.11      0. 
 Bq                   -2.88     -0.91      0. 
 Bq                   -2.88     -0.71      0. 
 Bq                   -2.88     -0.51      0. 
 Bq                   -2.88     -0.31      0. 
 Bq                   -2.88     -0.11      0. 
 Bq                   -2.88      0.09      0. 
 Bq                   -2.88      0.29      0. 
 Bq                   -2.88      0.49      0. 
 Bq                   -2.88      0.69      0. 
 Bq                   -2.88      0.89      0. 
 Bq                   -2.88      1.09      0. 
 Bq                   -2.88      1.29      0. 
 Bq                   -2.88      1.49      0. 
 Bq                   -2.88      1.69      0. 
 Bq                   -2.88      1.89      0. 
 Bq                   -2.88      2.09      0. 
 Bq                   -2.88      2.29      0. 
 Bq                   -2.88      2.49      0. 
 Bq                   -2.88      2.69      0. 
 Bq                   -2.88      2.89      0. 
 Bq                   -2.88      3.09      0. 
 Bq                   -2.88      3.29      0. 
 Bq                   -2.88      3.49      0. 
 Bq                   -2.88      3.69      0. 
 Bq                   -2.88      3.89      0. 
 Bq                   -2.68     -3.91      0. 
 Bq                   -2.68     -3.71      0. 
 Bq                   -2.68     -3.51      0. 
 Bq                   -2.68     -3.31      0. 
 Bq                   -2.68     -3.11      0. 
 Bq                   -2.68     -2.91      0. 
 Bq                   -2.68     -2.71      0. 
 Bq                   -2.68     -2.51      0. 
 Bq                   -2.68     -2.31      0. 
 Bq                   -2.68     -2.11      0. 
 Bq                   -2.68     -1.91      0. 
 Bq                   -2.68     -1.71      0. 
 Bq                   -2.68     -1.51      0. 
 Bq                   -2.68     -1.31      0. 
 Bq                   -2.68     -1.11      0. 
 Bq                   -2.68     -0.91      0. 
 Bq                   -2.68     -0.71      0. 
 Bq                   -2.68     -0.51      0. 
 Bq                   -2.68     -0.31      0. 
 Bq                   -2.68     -0.11      0. 
 Bq                   -2.68      0.09      0. 
 Bq                   -2.68      0.29      0. 
 Bq                   -2.68      0.49      0. 
 Bq                   -2.68      0.69      0. 
 Bq                   -2.68      0.89      0. 
 Bq                   -2.68      1.09      0. 
 Bq                   -2.68      1.29      0. 
 Bq                   -2.68      1.49      0. 
 Bq                   -2.68      1.69      0. 
 Bq                   -2.68      1.89      0. 
 Bq                   -2.68      2.09      0. 
 Bq                   -2.68      2.29      0. 
 Bq                   -2.68      2.49      0. 
 Bq                   -2.68      2.69      0. 
 Bq                   -2.68      2.89      0. 
 Bq                   -2.68      3.09      0. 
 Bq                   -2.68      3.29      0. 
 Bq                   -2.68      3.49      0. 
 Bq                   -2.68      3.69      0. 
 Bq                   -2.68      3.89      0. 
 Bq                   -2.48     -3.91      0. 
 Bq                   -2.48     -3.71      0. 
 Bq                   -2.48     -3.51      0. 
 Bq                   -2.48     -3.31      0. 
 Bq                   -2.48     -3.11      0. 
 Bq                   -2.48     -2.91      0. 
 Bq                   -2.48     -2.71      0. 
 Bq                   -2.48     -2.51      0. 
 Bq                   -2.48     -2.31      0. 
 Bq                   -2.48     -2.11      0. 
 Bq                   -2.48     -1.91      0. 
 Bq                   -2.48     -1.71      0. 
 Bq                   -2.48     -1.51      0. 
 Bq                   -2.48     -1.31      0. 
 Bq                   -2.48     -1.11      0. 
 Bq                   -2.48     -0.91      0. 
 Bq                   -2.48     -0.71      0. 
 Bq                   -2.48     -0.51      0. 
 Bq                   -2.48     -0.31      0. 
 Bq                   -2.48     -0.11      0. 
 Bq                   -2.48      0.09      0. 
 Bq                   -2.48      0.29      0. 
 Bq                   -2.48      0.49      0. 
 Bq                   -2.48      0.69      0. 
 Bq                   -2.48      0.89      0. 
 Bq                   -2.48      1.09      0. 
 Bq                   -2.48      1.29      0. 
 Bq                   -2.48      1.49      0. 
 Bq                   -2.48      1.69      0. 
 Bq                   -2.48      1.89      0. 
 Bq                   -2.48      2.09      0. 
 Bq                   -2.48      2.29      0. 
 Bq                   -2.48      2.49      0. 
 Bq                   -2.48      2.69      0. 
 Bq                   -2.48      2.89      0. 
 Bq                   -2.48      3.09      0. 
 Bq                   -2.48      3.29      0. 
 Bq                   -2.48      3.49      0. 
 Bq                   -2.48      3.69      0. 
 Bq                   -2.48      3.89      0. 
 Bq                   -2.28     -3.91      0. 
 Bq                   -2.28     -3.71      0. 
 Bq                   -2.28     -3.51      0. 
 Bq                   -2.28     -3.31      0. 
 Bq                   -2.28     -3.11      0. 
 Bq                   -2.28     -2.91      0. 
 Bq                   -2.28     -2.71      0. 
 Bq                   -2.28     -2.51      0. 
 Bq                   -2.28     -2.31      0. 
 Bq                   -2.28     -2.11      0. 
 Bq                   -2.28     -1.91      0. 
 Bq                   -2.28     -1.71      0. 
 Bq                   -2.28     -1.51      0. 
 Bq                   -2.28     -1.31      0. 
 Bq                   -2.28     -1.11      0. 
 Bq                   -2.28     -0.91      0. 
 Bq                   -2.28     -0.71      0. 
 Bq                   -2.28     -0.51      0. 
 Bq                   -2.28     -0.31      0. 
 Bq                   -2.28     -0.11      0. 
 Bq                   -2.28      0.09      0. 
 Bq                   -2.28      0.29      0. 
 Bq                   -2.28      0.49      0. 
 Bq                   -2.28      0.69      0. 
 Bq                   -2.28      0.89      0. 
 Bq                   -2.28      1.09      0. 
 Bq                   -2.28      1.29      0. 
 Bq                   -2.28      1.49      0. 
 Bq                   -2.28      1.69      0. 
 Bq                   -2.28      1.89      0. 
 Bq                   -2.28      2.09      0. 
 Bq                   -2.28      2.29      0. 
 Bq                   -2.28      2.49      0. 
 Bq                   -2.28      2.69      0. 
 Bq                   -2.28      2.89      0. 
 Bq                   -2.28      3.09      0. 
 Bq                   -2.28      3.29      0. 
 Bq                   -2.28      3.49      0. 
 Bq                   -2.28      3.69      0. 
 Bq                   -2.28      3.89      0. 
 Bq                   -2.08     -3.91      0. 
 Bq                   -2.08     -3.71      0. 
 Bq                   -2.08     -3.51      0. 
 Bq                   -2.08     -3.31      0. 
 Bq                   -2.08     -3.11      0. 
 Bq                   -2.08     -2.91      0. 
 Bq                   -2.08     -2.71      0. 
 Bq                   -2.08     -2.51      0. 
 Bq                   -2.08     -2.31      0. 
 Bq                   -2.08     -2.11      0. 
 Bq                   -2.08     -1.91      0. 
 Bq                   -2.08     -1.71      0. 
 Bq                   -2.08     -1.51      0. 
 Bq                   -2.08     -1.31      0. 
 Bq                   -2.08     -1.11      0. 
 Bq                   -2.08     -0.91      0. 
 Bq                   -2.08     -0.71      0. 
 Bq                   -2.08     -0.51      0. 
 Bq                   -2.08     -0.31      0. 
 Bq                   -2.08     -0.11      0. 
 Bq                   -2.08      0.09      0. 
 Bq                   -2.08      0.29      0. 
 Bq                   -2.08      0.49      0. 
 Bq                   -2.08      0.69      0. 
 Bq                   -2.08      0.89      0. 
 Bq                   -2.08      1.09      0. 
 Bq                   -2.08      1.29      0. 
 Bq                   -2.08      1.49      0. 
 Bq                   -2.08      1.69      0. 
 Bq                   -2.08      1.89      0. 
 Bq                   -2.08      2.09      0. 
 Bq                   -2.08      2.29      0. 
 Bq                   -2.08      2.49      0. 
 Bq                   -2.08      2.69      0. 
 Bq                   -2.08      2.89      0. 
 Bq                   -2.08      3.09      0. 
 Bq                   -2.08      3.29      0. 
 Bq                   -2.08      3.49      0. 
 Bq                   -2.08      3.69      0. 
 Bq                   -2.08      3.89      0. 
 Bq                   -1.88     -3.91      0. 
 Bq                   -1.88     -3.71      0. 
 Bq                   -1.88     -3.51      0. 
 Bq                   -1.88     -3.31      0. 
 Bq                   -1.88     -3.11      0. 
 Bq                   -1.88     -2.91      0. 
 Bq                   -1.88     -2.71      0. 
 Bq                   -1.88     -2.51      0. 
 Bq                   -1.88     -2.31      0. 
 Bq                   -1.88     -2.11      0. 
 Bq                   -1.88     -1.91      0. 
 Bq                   -1.88     -1.71      0. 
 Bq                   -1.88     -1.51      0. 
 Bq                   -1.88     -1.31      0. 
 Bq                   -1.88     -1.11      0. 
 Bq                   -1.88     -0.91      0. 
 Bq                   -1.88     -0.71      0. 
 Bq                   -1.88     -0.51      0. 
 Bq                   -1.88     -0.31      0. 
 Bq                   -1.88     -0.11      0. 
 Bq                   -1.88      0.09      0. 
 Bq                   -1.88      0.29      0. 
 Bq                   -1.88      0.49      0. 
 Bq                   -1.88      0.69      0. 
 Bq                   -1.88      0.89      0. 
 Bq                   -1.88      1.09      0. 
 Bq                   -1.88      1.29      0. 
 Bq                   -1.88      1.49      0. 
 Bq                   -1.88      1.69      0. 
 Bq                   -1.88      1.89      0. 
 Bq                   -1.88      2.09      0. 
 Bq                   -1.88      2.29      0. 
 Bq                   -1.88      2.49      0. 
 Bq                   -1.88      2.69      0. 
 Bq                   -1.88      2.89      0. 
 Bq                   -1.88      3.09      0. 
 Bq                   -1.88      3.29      0. 
 Bq                   -1.88      3.49      0. 
 Bq                   -1.88      3.69      0. 
 Bq                   -1.88      3.89      0. 
 Bq                   -1.68     -3.91      0. 
 Bq                   -1.68     -3.71      0. 
 Bq                   -1.68     -3.51      0. 
 Bq                   -1.68     -3.31      0. 
 Bq                   -1.68     -3.11      0. 
 Bq                   -1.68     -2.91      0. 
 Bq                   -1.68     -2.71      0. 
 Bq                   -1.68     -2.51      0. 
 Bq                   -1.68     -2.31      0. 
 Bq                   -1.68     -2.11      0. 
 Bq                   -1.68     -1.91      0. 
 Bq                   -1.68     -1.71      0. 
 Bq                   -1.68     -1.51      0. 
 Bq                   -1.68     -1.31      0. 
 Bq                   -1.68     -1.11      0. 
 Bq                   -1.68     -0.91      0. 
 Bq                   -1.68     -0.71      0. 
 Bq                   -1.68     -0.51      0. 
 Bq                   -1.68     -0.31      0. 
 Bq                   -1.68     -0.11      0. 
 Bq                   -1.68      0.09      0. 
 Bq                   -1.68      0.29      0. 
 Bq                   -1.68      0.49      0. 
 Bq                   -1.68      0.69      0. 
 Bq                   -1.68      0.89      0. 
 Bq                   -1.68      1.09      0. 
 Bq                   -1.68      1.29      0. 
 Bq                   -1.68      1.49      0. 
 Bq                   -1.68      1.69      0. 
 Bq                   -1.68      1.89      0. 
 Bq                   -1.68      2.09      0. 
 Bq                   -1.68      2.29      0. 
 Bq                   -1.68      2.49      0. 
 Bq                   -1.68      2.69      0. 
 Bq                   -1.68      2.89      0. 
 Bq                   -1.68      3.09      0. 
 Bq                   -1.68      3.29      0. 
 Bq                   -1.68      3.49      0. 
 Bq                   -1.68      3.69      0. 
 Bq                   -1.68      3.89      0. 
 Bq                   -1.48     -3.91      0. 
 Bq                   -1.48     -3.71      0. 
 Bq                   -1.48     -3.51      0. 
 Bq                   -1.48     -3.31      0. 
 Bq                   -1.48     -3.11      0. 
 Bq                   -1.48     -2.91      0. 
 Bq                   -1.48     -2.71      0. 
 Bq                   -1.48     -2.51      0. 
 Bq                   -1.48     -2.31      0. 
 Bq                   -1.48     -2.11      0. 
 Bq                   -1.48     -1.91      0. 
 Bq                   -1.48     -1.71      0. 
 Bq                   -1.48     -1.51      0. 
 Bq                   -1.48     -1.31      0. 
 Bq                   -1.48     -1.11      0. 
 Bq                   -1.48     -0.91      0. 
 Bq                   -1.48     -0.71      0. 
 Bq                   -1.48     -0.51      0. 
 Bq                   -1.48     -0.31      0. 
 Bq                   -1.48     -0.11      0. 
 Bq                   -1.48      0.09      0. 
 Bq                   -1.48      0.29      0. 
 Bq                   -1.48      0.49      0. 
 Bq                   -1.48      0.69      0. 
 Bq                   -1.48      0.89      0. 
 Bq                   -1.48      1.09      0. 
 Bq                   -1.48      1.29      0. 
 Bq                   -1.48      1.49      0. 
 Bq                   -1.48      1.69      0. 
 Bq                   -1.48      1.89      0. 
 Bq                   -1.48      2.09      0. 
 Bq                   -1.48      2.29      0. 
 Bq                   -1.48      2.49      0. 
 Bq                   -1.48      2.69      0. 
 Bq                   -1.48      2.89      0. 
 Bq                   -1.48      3.09      0. 
 Bq                   -1.48      3.29      0. 
 Bq                   -1.48      3.49      0. 
 Bq                   -1.48      3.69      0. 
 Bq                   -1.48      3.89      0. 
 Bq                   -1.28     -3.91      0. 
 Bq                   -1.28     -3.71      0. 
 Bq                   -1.28     -3.51      0. 
 Bq                   -1.28     -3.31      0. 
 Bq                   -1.28     -3.11      0. 
 Bq                   -1.28     -2.91      0. 
 Bq                   -1.28     -2.71      0. 
 Bq                   -1.28     -2.51      0. 
 Bq                   -1.28     -2.31      0. 
 Bq                   -1.28     -2.11      0. 
 Bq                   -1.28     -1.91      0. 
 Bq                   -1.28     -1.71      0. 
 Bq                   -1.28     -1.51      0. 
 Bq                   -1.28     -1.31      0. 
 Bq                   -1.28     -1.11      0. 
 Bq                   -1.28     -0.91      0. 
 Bq                   -1.28     -0.71      0. 
 Bq                   -1.28     -0.51      0. 
 Bq                   -1.28     -0.31      0. 
 Bq                   -1.28     -0.11      0. 
 Bq                   -1.28      0.09      0. 
 Bq                   -1.28      0.29      0. 
 Bq                   -1.28      0.49      0. 
 Bq                   -1.28      0.69      0. 
 Bq                   -1.28      0.89      0. 
 Bq                   -1.28      1.09      0. 
 Bq                   -1.28      1.29      0. 
 Bq                   -1.28      1.49      0. 
 Bq                   -1.28      1.69      0. 
 Bq                   -1.28      1.89      0. 
 Bq                   -1.28      2.09      0. 
 Bq                   -1.28      2.29      0. 
 Bq                   -1.28      2.49      0. 
 Bq                   -1.28      2.69      0. 
 Bq                   -1.28      2.89      0. 
 Bq                   -1.28      3.09      0. 
 Bq                   -1.28      3.29      0. 
 Bq                   -1.28      3.49      0. 
 Bq                   -1.28      3.69      0. 
 Bq                   -1.28      3.89      0. 
 Bq                   -1.08     -3.91      0. 
 Bq                   -1.08     -3.71      0. 
 Bq                   -1.08     -3.51      0. 
 Bq                   -1.08     -3.31      0. 
 Bq                   -1.08     -3.11      0. 
 Bq                   -1.08     -2.91      0. 
 Bq                   -1.08     -2.71      0. 
 Bq                   -1.08     -2.51      0. 
 Bq                   -1.08     -2.31      0. 
 Bq                   -1.08     -2.11      0. 
 Bq                   -1.08     -1.91      0. 
 Bq                   -1.08     -1.71      0. 
 Bq                   -1.08     -1.51      0. 
 Bq                   -1.08     -1.31      0. 
 Bq                   -1.08     -1.11      0. 
 Bq                   -1.08     -0.91      0. 
 Bq                   -1.08     -0.71      0. 
 Bq                   -1.08     -0.51      0. 
 Bq                   -1.08     -0.31      0. 
 Bq                   -1.08     -0.11      0. 
 Bq                   -1.08      0.09      0. 
 Bq                   -1.08      0.29      0. 
 Bq                   -1.08      0.49      0. 
 Bq                   -1.08      0.69      0. 
 Bq                   -1.08      0.89      0. 
 Bq                   -1.08      1.09      0. 
 Bq                   -1.08      1.29      0. 
 Bq                   -1.08      1.49      0. 
 Bq                   -1.08      1.69      0. 
 Bq                   -1.08      1.89      0. 
 Bq                   -1.08      2.09      0. 
 Bq                   -1.08      2.29      0. 
 Bq                   -1.08      2.49      0. 
 Bq                   -1.08      2.69      0. 
 Bq                   -1.08      2.89      0. 
 Bq                   -1.08      3.09      0. 
 Bq                   -1.08      3.29      0. 
 Bq                   -1.08      3.49      0. 
 Bq                   -1.08      3.69      0. 
 Bq                   -1.08      3.89      0. 
 Bq                   -0.88     -3.91      0. 
 Bq                   -0.88     -3.71      0. 
 Bq                   -0.88     -3.51      0. 
 Bq                   -0.88     -3.31      0. 
 Bq                   -0.88     -3.11      0. 
 Bq                   -0.88     -2.91      0. 
 Bq                   -0.88     -2.71      0. 
 Bq                   -0.88     -2.51      0. 
 Bq                   -0.88     -2.31      0. 
 Bq                   -0.88     -2.11      0. 
 Bq                   -0.88     -1.91      0. 
 Bq                   -0.88     -1.71      0. 
 Bq                   -0.88     -1.51      0. 
 Bq                   -0.88     -1.31      0. 
 Bq                   -0.88     -1.11      0. 
 Bq                   -0.88     -0.91      0. 
 Bq                   -0.88     -0.71      0. 
 Bq                   -0.88     -0.51      0. 
 Bq                   -0.88     -0.31      0. 
 Bq                   -0.88     -0.11      0. 
 Bq                   -0.88      0.09      0. 
 Bq                   -0.88      0.29      0. 
 Bq                   -0.88      0.49      0. 
 Bq                   -0.88      0.69      0. 
 Bq                   -0.88      0.89      0. 
 Bq                   -0.88      1.09      0. 
 Bq                   -0.88      1.29      0. 
 Bq                   -0.88      1.49      0. 
 Bq                   -0.88      1.69      0. 
 Bq                   -0.88      1.89      0. 
 Bq                   -0.88      2.09      0. 
 Bq                   -0.88      2.29      0. 
 Bq                   -0.88      2.49      0. 
 Bq                   -0.88      2.69      0. 
 Bq                   -0.88      2.89      0. 
 Bq                   -0.88      3.09      0. 
 Bq                   -0.88      3.29      0. 
 Bq                   -0.88      3.49      0. 
 Bq                   -0.88      3.69      0. 
 Bq                   -0.88      3.89      0. 
 Bq                   -0.68     -3.91      0. 
 Bq                   -0.68     -3.71      0. 
 Bq                   -0.68     -3.51      0. 
 Bq                   -0.68     -3.31      0. 
 Bq                   -0.68     -3.11      0. 
 Bq                   -0.68     -2.91      0. 
 Bq                   -0.68     -2.71      0. 
 Bq                   -0.68     -2.51      0. 
 Bq                   -0.68     -2.31      0. 
 Bq                   -0.68     -2.11      0. 
 Bq                   -0.68     -1.91      0. 
 Bq                   -0.68     -1.71      0. 
 Bq                   -0.68     -1.51      0. 
 Bq                   -0.68     -1.31      0. 
 Bq                   -0.68     -1.11      0. 
 Bq                   -0.68     -0.91      0. 
 Bq                   -0.68     -0.71      0. 
 Bq                   -0.68     -0.51      0. 
 Bq                   -0.68     -0.31      0. 
 Bq                   -0.68     -0.11      0. 
 Bq                   -0.68      0.09      0. 
 Bq                   -0.68      0.29      0. 
 Bq                   -0.68      0.49      0. 
 Bq                   -0.68      0.69      0. 
 Bq                   -0.68      0.89      0. 
 Bq                   -0.68      1.09      0. 
 Bq                   -0.68      1.29      0. 
 Bq                   -0.68      1.49      0. 
 Bq                   -0.68      1.69      0. 
 Bq                   -0.68      1.89      0. 
 Bq                   -0.68      2.09      0. 
 Bq                   -0.68      2.29      0. 
 Bq                   -0.68      2.49      0. 
 Bq                   -0.68      2.69      0. 
 Bq                   -0.68      2.89      0. 
 Bq                   -0.68      3.09      0. 
 Bq                   -0.68      3.29      0. 
 Bq                   -0.68      3.49      0. 
 Bq                   -0.68      3.69      0. 
 Bq                   -0.68      3.89      0. 
 Bq                   -0.48     -3.91      0. 
 Bq                   -0.48     -3.71      0. 
 Bq                   -0.48     -3.51      0. 
 Bq                   -0.48     -3.31      0. 
 Bq                   -0.48     -3.11      0. 
 Bq                   -0.48     -2.91      0. 
 Bq                   -0.48     -2.71      0. 
 Bq                   -0.48     -2.51      0. 
 Bq                   -0.48     -2.31      0. 
 Bq                   -0.48     -2.11      0. 
 Bq                   -0.48     -1.91      0. 
 Bq                   -0.48     -1.71      0. 
 Bq                   -0.48     -1.51      0. 
 Bq                   -0.48     -1.31      0. 
 Bq                   -0.48     -1.11      0. 
 Bq                   -0.48     -0.91      0. 
 Bq                   -0.48     -0.71      0. 
 Bq                   -0.48     -0.51      0. 
 Bq                   -0.48     -0.31      0. 
 Bq                   -0.48     -0.11      0. 
 Bq                   -0.48      0.09      0. 
 Bq                   -0.48      0.29      0. 
 Bq                   -0.48      0.49      0. 
 Bq                   -0.48      0.69      0. 
 Bq                   -0.48      0.89      0. 
 Bq                   -0.48      1.09      0. 
 Bq                   -0.48      1.29      0. 
 Bq                   -0.48      1.49      0. 
 Bq                   -0.48      1.69      0. 
 Bq                   -0.48      1.89      0. 
 Bq                   -0.48      2.09      0. 
 Bq                   -0.48      2.29      0. 
 Bq                   -0.48      2.49      0. 
 Bq                   -0.48      2.69      0. 
 Bq                   -0.48      2.89      0. 
 Bq                   -0.48      3.09      0. 
 Bq                   -0.48      3.29      0. 
 Bq                   -0.48      3.49      0. 
 Bq                   -0.48      3.69      0. 
 Bq                   -0.48      3.89      0. 
 Bq                   -0.28     -3.91      0. 
 Bq                   -0.28     -3.71      0. 
 Bq                   -0.28     -3.51      0. 
 Bq                   -0.28     -3.31      0. 
 Bq                   -0.28     -3.11      0. 
 Bq                   -0.28     -2.91      0. 
 Bq                   -0.28     -2.71      0. 
 Bq                   -0.28     -2.51      0. 
 Bq                   -0.28     -2.31      0. 
 Bq                   -0.28     -2.11      0. 
 Bq                   -0.28     -1.91      0. 
 Bq                   -0.28     -1.71      0. 
 Bq                   -0.28     -1.51      0. 
 Bq                   -0.28     -1.31      0. 
 Bq                   -0.28     -1.11      0. 
 Bq                   -0.28     -0.91      0. 
 Bq                   -0.28     -0.71      0. 
 Bq                   -0.28     -0.51      0. 
 Bq                   -0.28     -0.31      0. 
 Bq                   -0.28     -0.11      0. 
 Bq                   -0.28      0.09      0. 
 Bq                   -0.28      0.29      0. 
 Bq                   -0.28      0.49      0. 
 Bq                   -0.28      0.69      0. 
 Bq                   -0.28      0.89      0. 
 Bq                   -0.28      1.09      0. 
 Bq                   -0.28      1.29      0. 
 Bq                   -0.28      1.49      0. 
 Bq                   -0.28      1.69      0. 
 Bq                   -0.28      1.89      0. 
 Bq                   -0.28      2.09      0. 
 Bq                   -0.28      2.29      0. 
 Bq                   -0.28      2.49      0. 
 Bq                   -0.28      2.69      0. 
 Bq                   -0.28      2.89      0. 
 Bq                   -0.28      3.09      0. 
 Bq                   -0.28      3.29      0. 
 Bq                   -0.28      3.49      0. 
 Bq                   -0.28      3.69      0. 
 Bq                   -0.28      3.89      0. 
 Bq                   -0.08     -3.91      0. 
 Bq                   -0.08     -3.71      0. 
 Bq                   -0.08     -3.51      0. 
 Bq                   -0.08     -3.31      0. 
 Bq                   -0.08     -3.11      0. 
 Bq                   -0.08     -2.91      0. 
 Bq                   -0.08     -2.71      0. 
 Bq                   -0.08     -2.51      0. 
 Bq                   -0.08     -2.31      0. 
 Bq                   -0.08     -2.11      0. 
 Bq                   -0.08     -1.91      0. 
 Bq                   -0.08     -1.71      0. 
 Bq                   -0.08     -1.51      0. 
 Bq                   -0.08     -1.31      0. 
 Bq                   -0.08     -1.11      0. 
 Bq                   -0.08     -0.91      0. 
 Bq                   -0.08     -0.71      0. 
 Bq                   -0.08     -0.51      0. 
 Bq                   -0.08     -0.31      0. 
 Bq                   -0.08     -0.11      0. 
 Bq                   -0.08      0.09      0. 
 Bq                   -0.08      0.29      0. 
 Bq                   -0.08      0.49      0. 
 Bq                   -0.08      0.69      0. 
 Bq                   -0.08      0.89      0. 
 Bq                   -0.08      1.09      0. 
 Bq                   -0.08      1.29      0. 
 Bq                   -0.08      1.49      0. 
 Bq                   -0.08      1.69      0. 
 Bq                   -0.08      1.89      0. 
 Bq                   -0.08      2.09      0. 
 Bq                   -0.08      2.29      0. 
 Bq                   -0.08      2.49      0. 
 Bq                   -0.08      2.69      0. 
 Bq                   -0.08      2.89      0. 
 Bq                   -0.08      3.09      0. 
 Bq                   -0.08      3.29      0. 
 Bq                   -0.08      3.49      0. 
 Bq                   -0.08      3.69      0. 
 Bq                   -0.08      3.89      0. 
 Bq                    0.12     -3.91      0. 
 Bq                    0.12     -3.71      0. 
 Bq                    0.12     -3.51      0. 
 Bq                    0.12     -3.31      0. 
 Bq                    0.12     -3.11      0. 
 Bq                    0.12     -2.91      0. 
 Bq                    0.12     -2.71      0. 
 Bq                    0.12     -2.51      0. 
 Bq                    0.12     -2.31      0. 
 Bq                    0.12     -2.11      0. 
 Bq                    0.12     -1.91      0. 
 Bq                    0.12     -1.71      0. 
 Bq                    0.12     -1.51      0. 
 Bq                    0.12     -1.31      0. 
 Bq                    0.12     -1.11      0. 
 Bq                    0.12     -0.91      0. 
 Bq                    0.12     -0.71      0. 
 Bq                    0.12     -0.51      0. 
 Bq                    0.12     -0.31      0. 
 Bq                    0.12     -0.11      0. 
 Bq                    0.12      0.09      0. 
 Bq                    0.12      0.29      0. 
 Bq                    0.12      0.49      0. 
 Bq                    0.12      0.69      0. 
 Bq                    0.12      0.89      0. 
 Bq                    0.12      1.09      0. 
 Bq                    0.12      1.29      0. 
 Bq                    0.12      1.49      0. 
 Bq                    0.12      1.69      0. 
 Bq                    0.12      1.89      0. 
 Bq                    0.12      2.09      0. 
 Bq                    0.12      2.29      0. 
 Bq                    0.12      2.49      0. 
 Bq                    0.12      2.69      0. 
 Bq                    0.12      2.89      0. 
 Bq                    0.12      3.09      0. 
 Bq                    0.12      3.29      0. 
 Bq                    0.12      3.49      0. 
 Bq                    0.12      3.69      0. 
 Bq                    0.12      3.89      0. 
 Bq                    0.32     -3.91      0. 
 Bq                    0.32     -3.71      0. 
 Bq                    0.32     -3.51      0. 
 Bq                    0.32     -3.31      0. 
 Bq                    0.32     -3.11      0. 
 Bq                    0.32     -2.91      0. 
 Bq                    0.32     -2.71      0. 
 Bq                    0.32     -2.51      0. 
 Bq                    0.32     -2.31      0. 
 Bq                    0.32     -2.11      0. 
 Bq                    0.32     -1.91      0. 
 Bq                    0.32     -1.71      0. 
 Bq                    0.32     -1.51      0. 
 Bq                    0.32     -1.31      0. 
 Bq                    0.32     -1.11      0. 
 Bq                    0.32     -0.91      0. 
 Bq                    0.32     -0.71      0. 
 Bq                    0.32     -0.51      0. 
 Bq                    0.32     -0.31      0. 
 Bq                    0.32     -0.11      0. 
 Bq                    0.32      0.09      0. 
 Bq                    0.32      0.29      0. 
 Bq                    0.32      0.49      0. 
 Bq                    0.32      0.69      0. 
 Bq                    0.32      0.89      0. 
 Bq                    0.32      1.09      0. 
 Bq                    0.32      1.29      0. 
 Bq                    0.32      1.49      0. 
 Bq                    0.32      1.69      0. 
 Bq                    0.32      1.89      0. 
 Bq                    0.32      2.09      0. 
 Bq                    0.32      2.29      0. 
 Bq                    0.32      2.49      0. 
 Bq                    0.32      2.69      0. 
 Bq                    0.32      2.89      0. 
 Bq                    0.32      3.09      0. 
 Bq                    0.32      3.29      0. 
 Bq                    0.32      3.49      0. 
 Bq                    0.32      3.69      0. 
 Bq                    0.32      3.89      0. 
 Bq                    0.52     -3.91      0. 
 Bq                    0.52     -3.71      0. 
 Bq                    0.52     -3.51      0. 
 Bq                    0.52     -3.31      0. 
 Bq                    0.52     -3.11      0. 
 Bq                    0.52     -2.91      0. 
 Bq                    0.52     -2.71      0. 
 Bq                    0.52     -2.51      0. 
 Bq                    0.52     -2.31      0. 
 Bq                    0.52     -2.11      0. 
 Bq                    0.52     -1.91      0. 
 Bq                    0.52     -1.71      0. 
 Bq                    0.52     -1.51      0. 
 Bq                    0.52     -1.31      0. 
 Bq                    0.52     -1.11      0. 
 Bq                    0.52     -0.91      0. 
 Bq                    0.52     -0.71      0. 
 Bq                    0.52     -0.51      0. 
 Bq                    0.52     -0.31      0. 
 Bq                    0.52     -0.11      0. 
 Bq                    0.52      0.09      0. 
 Bq                    0.52      0.29      0. 
 Bq                    0.52      0.49      0. 
 Bq                    0.52      0.69      0. 
 Bq                    0.52      0.89      0. 
 Bq                    0.52      1.09      0. 
 Bq                    0.52      1.29      0. 
 Bq                    0.52      1.49      0. 
 Bq                    0.52      1.69      0. 
 Bq                    0.52      1.89      0. 
 Bq                    0.52      2.09      0. 
 Bq                    0.52      2.29      0. 
 Bq                    0.52      2.49      0. 
 Bq                    0.52      2.69      0. 
 Bq                    0.52      2.89      0. 
 Bq                    0.52      3.09      0. 
 Bq                    0.52      3.29      0. 
 Bq                    0.52      3.49      0. 
 Bq                    0.52      3.69      0. 
 Bq                    0.52      3.89      0. 
 Bq                    0.72     -3.91      0. 
 Bq                    0.72     -3.71      0. 
 Bq                    0.72     -3.51      0. 
 Bq                    0.72     -3.31      0. 
 Bq                    0.72     -3.11      0. 
 Bq                    0.72     -2.91      0. 
 Bq                    0.72     -2.71      0. 
 Bq                    0.72     -2.51      0. 
 Bq                    0.72     -2.31      0. 
 Bq                    0.72     -2.11      0. 
 Bq                    0.72     -1.91      0. 
 Bq                    0.72     -1.71      0. 
 Bq                    0.72     -1.51      0. 
 Bq                    0.72     -1.31      0. 
 Bq                    0.72     -1.11      0. 
 Bq                    0.72     -0.91      0. 
 Bq                    0.72     -0.71      0. 
 Bq                    0.72     -0.51      0. 
 Bq                    0.72     -0.31      0. 
 Bq                    0.72     -0.11      0. 
 Bq                    0.72      0.09      0. 
 Bq                    0.72      0.29      0. 
 Bq                    0.72      0.49      0. 
 Bq                    0.72      0.69      0. 
 Bq                    0.72      0.89      0. 
 Bq                    0.72      1.09      0. 
 Bq                    0.72      1.29      0. 
 Bq                    0.72      1.49      0. 
 Bq                    0.72      1.69      0. 
 Bq                    0.72      1.89      0. 
 Bq                    0.72      2.09      0. 
 Bq                    0.72      2.29      0. 
 Bq                    0.72      2.49      0. 
 Bq                    0.72      2.69      0. 
 Bq                    0.72      2.89      0. 
 Bq                    0.72      3.09      0. 
 Bq                    0.72      3.29      0. 
 Bq                    0.72      3.49      0. 
 Bq                    0.72      3.69      0. 
 Bq                    0.72      3.89      0. 
 Bq                    0.92     -3.91      0. 
 Bq                    0.92     -3.71      0. 
 Bq                    0.92     -3.51      0. 
 Bq                    0.92     -3.31      0. 
 Bq                    0.92     -3.11      0. 
 Bq                    0.92     -2.91      0. 
 Bq                    0.92     -2.71      0. 
 Bq                    0.92     -2.51      0. 
 Bq                    0.92     -2.31      0. 
 Bq                    0.92     -2.11      0. 
 Bq                    0.92     -1.91      0. 
 Bq                    0.92     -1.71      0. 
 Bq                    0.92     -1.51      0. 
 Bq                    0.92     -1.31      0. 
 Bq                    0.92     -1.11      0. 
 Bq                    0.92     -0.91      0. 
 Bq                    0.92     -0.71      0. 
 Bq                    0.92     -0.51      0. 
 Bq                    0.92     -0.31      0. 
 Bq                    0.92     -0.11      0. 
 Bq                    0.92      0.09      0. 
 Bq                    0.92      0.29      0. 
 Bq                    0.92      0.49      0. 
 Bq                    0.92      0.69      0. 
 Bq                    0.92      0.89      0. 
 Bq                    0.92      1.09      0. 
 Bq                    0.92      1.29      0. 
 Bq                    0.92      1.49      0. 
 Bq                    0.92      1.69      0. 
 Bq                    0.92      1.89      0. 
 Bq                    0.92      2.09      0. 
 Bq                    0.92      2.29      0. 
 Bq                    0.92      2.49      0. 
 Bq                    0.92      2.69      0. 
 Bq                    0.92      2.89      0. 
 Bq                    0.92      3.09      0. 
 Bq                    0.92      3.29      0. 
 Bq                    0.92      3.49      0. 
 Bq                    0.92      3.69      0. 
 Bq                    0.92      3.89      0. 
 Bq                    1.12     -3.91      0. 
 Bq                    1.12     -3.71      0. 
 Bq                    1.12     -3.51      0. 
 Bq                    1.12     -3.31      0. 
 Bq                    1.12     -3.11      0. 
 Bq                    1.12     -2.91      0. 
 Bq                    1.12     -2.71      0. 
 Bq                    1.12     -2.51      0. 
 Bq                    1.12     -2.31      0. 
 Bq                    1.12     -2.11      0. 
 Bq                    1.12     -1.91      0. 
 Bq                    1.12     -1.71      0. 
 Bq                    1.12     -1.51      0. 
 Bq                    1.12     -1.31      0. 
 Bq                    1.12     -1.11      0. 
 Bq                    1.12     -0.91      0. 
 Bq                    1.12     -0.71      0. 
 Bq                    1.12     -0.51      0. 
 Bq                    1.12     -0.31      0. 
 Bq                    1.12     -0.11      0. 
 Bq                    1.12      0.09      0. 
 Bq                    1.12      0.29      0. 
 Bq                    1.12      0.49      0. 
 Bq                    1.12      0.69      0. 
 Bq                    1.12      0.89      0. 
 Bq                    1.12      1.09      0. 
 Bq                    1.12      1.29      0. 
 Bq                    1.12      1.49      0. 
 Bq                    1.12      1.69      0. 
 Bq                    1.12      1.89      0. 
 Bq                    1.12      2.09      0. 
 Bq                    1.12      2.29      0. 
 Bq                    1.12      2.49      0. 
 Bq                    1.12      2.69      0. 
 Bq                    1.12      2.89      0. 
 Bq                    1.12      3.09      0. 
 Bq                    1.12      3.29      0. 
 Bq                    1.12      3.49      0. 
 Bq                    1.12      3.69      0. 
 Bq                    1.12      3.89      0. 
 Bq                    1.32     -3.91      0. 
 Bq                    1.32     -3.71      0. 
 Bq                    1.32     -3.51      0. 
 Bq                    1.32     -3.31      0. 
 Bq                    1.32     -3.11      0. 
 Bq                    1.32     -2.91      0. 
 Bq                    1.32     -2.71      0. 
 Bq                    1.32     -2.51      0. 
 Bq                    1.32     -2.31      0. 
 Bq                    1.32     -2.11      0. 
 Bq                    1.32     -1.91      0. 
 Bq                    1.32     -1.71      0. 
 Bq                    1.32     -1.51      0. 
 Bq                    1.32     -1.31      0. 
 Bq                    1.32     -1.11      0. 
 Bq                    1.32     -0.91      0. 
 Bq                    1.32     -0.71      0. 
 Bq                    1.32     -0.51      0. 
 Bq                    1.32     -0.31      0. 
 Bq                    1.32     -0.11      0. 
 Bq                    1.32      0.09      0. 
 Bq                    1.32      0.29      0. 
 Bq                    1.32      0.49      0. 
 Bq                    1.32      0.69      0. 
 Bq                    1.32      0.89      0. 
 Bq                    1.32      1.09      0. 
 Bq                    1.32      1.29      0. 
 Bq                    1.32      1.49      0. 
 Bq                    1.32      1.69      0. 
 Bq                    1.32      1.89      0. 
 Bq                    1.32      2.09      0. 
 Bq                    1.32      2.29      0. 
 Bq                    1.32      2.49      0. 
 Bq                    1.32      2.69      0. 
 Bq                    1.32      2.89      0. 
 Bq                    1.32      3.09      0. 
 Bq                    1.32      3.29      0. 
 Bq                    1.32      3.49      0. 
 Bq                    1.32      3.69      0. 
 Bq                    1.32      3.89      0. 
 Bq                    1.52     -3.91      0. 
 Bq                    1.52     -3.71      0. 
 Bq                    1.52     -3.51      0. 
 Bq                    1.52     -3.31      0. 
 Bq                    1.52     -3.11      0. 
 Bq                    1.52     -2.91      0. 
 Bq                    1.52     -2.71      0. 
 Bq                    1.52     -2.51      0. 
 Bq                    1.52     -2.31      0. 
 Bq                    1.52     -2.11      0. 
 Bq                    1.52     -1.91      0. 
 Bq                    1.52     -1.71      0. 
 Bq                    1.52     -1.51      0. 
 Bq                    1.52     -1.31      0. 
 Bq                    1.52     -1.11      0. 
 Bq                    1.52     -0.91      0. 
 Bq                    1.52     -0.71      0. 
 Bq                    1.52     -0.51      0. 
 Bq                    1.52     -0.31      0. 
 Bq                    1.52     -0.11      0. 
 Bq                    1.52      0.09      0. 
 Bq                    1.52      0.29      0. 
 Bq                    1.52      0.49      0. 
 Bq                    1.52      0.69      0. 
 Bq                    1.52      0.89      0. 
 Bq                    1.52      1.09      0. 
 Bq                    1.52      1.29      0. 
 Bq                    1.52      1.49      0. 
 Bq                    1.52      1.69      0. 
 Bq                    1.52      1.89      0. 
 Bq                    1.52      2.09      0. 
 Bq                    1.52      2.29      0. 
 Bq                    1.52      2.49      0. 
 Bq                    1.52      2.69      0. 
 Bq                    1.52      2.89      0. 
 Bq                    1.52      3.09      0. 
 Bq                    1.52      3.29      0. 
 Bq                    1.52      3.49      0. 
 Bq                    1.52      3.69      0. 
 Bq                    1.52      3.89      0. 
 Bq                    1.72     -3.91      0. 
 Bq                    1.72     -3.71      0. 
 Bq                    1.72     -3.51      0. 
 Bq                    1.72     -3.31      0. 
 Bq                    1.72     -3.11      0. 
 Bq                    1.72     -2.91      0. 
 Bq                    1.72     -2.71      0. 
 Bq                    1.72     -2.51      0. 
 Bq                    1.72     -2.31      0. 
 Bq                    1.72     -2.11      0. 
 Bq                    1.72     -1.91      0. 
 Bq                    1.72     -1.71      0. 
 Bq                    1.72     -1.51      0. 
 Bq                    1.72     -1.31      0. 
 Bq                    1.72     -1.11      0. 
 Bq                    1.72     -0.91      0. 
 Bq                    1.72     -0.71      0. 
 Bq                    1.72     -0.51      0. 
 Bq                    1.72     -0.31      0. 
 Bq                    1.72     -0.11      0. 
 Bq                    1.72      0.09      0. 
 Bq                    1.72      0.29      0. 
 Bq                    1.72      0.49      0. 
 Bq                    1.72      0.69      0. 
 Bq                    1.72      0.89      0. 
 Bq                    1.72      1.09      0. 
 Bq                    1.72      1.29      0. 
 Bq                    1.72      1.49      0. 
 Bq                    1.72      1.69      0. 
 Bq                    1.72      1.89      0. 
 Bq                    1.72      2.09      0. 
 Bq                    1.72      2.29      0. 
 Bq                    1.72      2.49      0. 
 Bq                    1.72      2.69      0. 
 Bq                    1.72      2.89      0. 
 Bq                    1.72      3.09      0. 
 Bq                    1.72      3.29      0. 
 Bq                    1.72      3.49      0. 
 Bq                    1.72      3.69      0. 
 Bq                    1.72      3.89      0. 
 Bq                    1.92     -3.91      0. 
 Bq                    1.92     -3.71      0. 
 Bq                    1.92     -3.51      0. 
 Bq                    1.92     -3.31      0. 
 Bq                    1.92     -3.11      0. 
 Bq                    1.92     -2.91      0. 
 Bq                    1.92     -2.71      0. 
 Bq                    1.92     -2.51      0. 
 Bq                    1.92     -2.31      0. 
 Bq                    1.92     -2.11      0. 
 Bq                    1.92     -1.91      0. 
 Bq                    1.92     -1.71      0. 
 Bq                    1.92     -1.51      0. 
 Bq                    1.92     -1.31      0. 
 Bq                    1.92     -1.11      0. 
 Bq                    1.92     -0.91      0. 
 Bq                    1.92     -0.71      0. 
 Bq                    1.92     -0.51      0. 
 Bq                    1.92     -0.31      0. 
 Bq                    1.92     -0.11      0. 
 Bq                    1.92      0.09      0. 
 Bq                    1.92      0.29      0. 
 Bq                    1.92      0.49      0. 
 Bq                    1.92      0.69      0. 
 Bq                    1.92      0.89      0. 
 Bq                    1.92      1.09      0. 
 Bq                    1.92      1.29      0. 
 Bq                    1.92      1.49      0. 
 Bq                    1.92      1.69      0. 
 Bq                    1.92      1.89      0. 
 Bq                    1.92      2.09      0. 
 Bq                    1.92      2.29      0. 
 Bq                    1.92      2.49      0. 
 Bq                    1.92      2.69      0. 
 Bq                    1.92      2.89      0. 
 Bq                    1.92      3.09      0. 
 Bq                    1.92      3.29      0. 
 Bq                    1.92      3.49      0. 
 Bq                    1.92      3.69      0. 
 Bq                    1.92      3.89      0. 
 Bq                    2.12     -3.91      0. 
 Bq                    2.12     -3.71      0. 
 Bq                    2.12     -3.51      0. 
 Bq                    2.12     -3.31      0. 
 Bq                    2.12     -3.11      0. 
 Bq                    2.12     -2.91      0. 
 Bq                    2.12     -2.71      0. 
 Bq                    2.12     -2.51      0. 
 Bq                    2.12     -2.31      0. 
 Bq                    2.12     -2.11      0. 
 Bq                    2.12     -1.91      0. 
 Bq                    2.12     -1.71      0. 
 Bq                    2.12     -1.51      0. 
 Bq                    2.12     -1.31      0. 
 Bq                    2.12     -1.11      0. 
 Bq                    2.12     -0.91      0. 
 Bq                    2.12     -0.71      0. 
 Bq                    2.12     -0.51      0. 
 Bq                    2.12     -0.31      0. 
 Bq                    2.12     -0.11      0. 
 Bq                    2.12      0.09      0. 
 Bq                    2.12      0.29      0. 
 Bq                    2.12      0.49      0. 
 Bq                    2.12      0.69      0. 
 Bq                    2.12      0.89      0. 
 Bq                    2.12      1.09      0. 
 Bq                    2.12      1.29      0. 
 Bq                    2.12      1.49      0. 
 Bq                    2.12      1.69      0. 
 Bq                    2.12      1.89      0. 
 Bq                    2.12      2.09      0. 
 Bq                    2.12      2.29      0. 
 Bq                    2.12      2.49      0. 
 Bq                    2.12      2.69      0. 
 Bq                    2.12      2.89      0. 
 Bq                    2.12      3.09      0. 
 Bq                    2.12      3.29      0. 
 Bq                    2.12      3.49      0. 
 Bq                    2.12      3.69      0. 
 Bq                    2.12      3.89      0. 
 Bq                    2.32     -3.91      0. 
 Bq                    2.32     -3.71      0. 
 Bq                    2.32     -3.51      0. 
 Bq                    2.32     -3.31      0. 
 Bq                    2.32     -3.11      0. 
 Bq                    2.32     -2.91      0. 
 Bq                    2.32     -2.71      0. 
 Bq                    2.32     -2.51      0. 
 Bq                    2.32     -2.31      0. 
 Bq                    2.32     -2.11      0. 
 Bq                    2.32     -1.91      0. 
 Bq                    2.32     -1.71      0. 
 Bq                    2.32     -1.51      0. 
 Bq                    2.32     -1.31      0. 
 Bq                    2.32     -1.11      0. 
 Bq                    2.32     -0.91      0. 
 Bq                    2.32     -0.71      0. 
 Bq                    2.32     -0.51      0. 
 Bq                    2.32     -0.31      0. 
 Bq                    2.32     -0.11      0. 
 Bq                    2.32      0.09      0. 
 Bq                    2.32      0.29      0. 
 Bq                    2.32      0.49      0. 
 Bq                    2.32      0.69      0. 
 Bq                    2.32      0.89      0. 
 Bq                    2.32      1.09      0. 
 Bq                    2.32      1.29      0. 
 Bq                    2.32      1.49      0. 
 Bq                    2.32      1.69      0. 
 Bq                    2.32      1.89      0. 
 Bq                    2.32      2.09      0. 
 Bq                    2.32      2.29      0. 
 Bq                    2.32      2.49      0. 
 Bq                    2.32      2.69      0. 
 Bq                    2.32      2.89      0. 
 Bq                    2.32      3.09      0. 
 Bq                    2.32      3.29      0. 
 Bq                    2.32      3.49      0. 
 Bq                    2.32      3.69      0. 
 Bq                    2.32      3.89      0. 
 Bq                    2.52     -3.91      0. 
 Bq                    2.52     -3.71      0. 
 Bq                    2.52     -3.51      0. 
 Bq                    2.52     -3.31      0. 
 Bq                    2.52     -3.11      0. 
 Bq                    2.52     -2.91      0. 
 Bq                    2.52     -2.71      0. 
 Bq                    2.52     -2.51      0. 
 Bq                    2.52     -2.31      0. 
 Bq                    2.52     -2.11      0. 
 Bq                    2.52     -1.91      0. 
 Bq                    2.52     -1.71      0. 
 Bq                    2.52     -1.51      0. 
 Bq                    2.52     -1.31      0. 
 Bq                    2.52     -1.11      0. 
 Bq                    2.52     -0.91      0. 
 Bq                    2.52     -0.71      0. 
 Bq                    2.52     -0.51      0. 
 Bq                    2.52     -0.31      0. 
 Bq                    2.52     -0.11      0. 
 Bq                    2.52      0.09      0. 
 Bq                    2.52      0.29      0. 
 Bq                    2.52      0.49      0. 
 Bq                    2.52      0.69      0. 
 Bq                    2.52      0.89      0. 
 Bq                    2.52      1.09      0. 
 Bq                    2.52      1.29      0. 
 Bq                    2.52      1.49      0. 
 Bq                    2.52      1.69      0. 
 Bq                    2.52      1.89      0. 
 Bq                    2.52      2.09      0. 
 Bq                    2.52      2.29      0. 
 Bq                    2.52      2.49      0. 
 Bq                    2.52      2.69      0. 
 Bq                    2.52      2.89      0. 
 Bq                    2.52      3.09      0. 
 Bq                    2.52      3.29      0. 
 Bq                    2.52      3.49      0. 
 Bq                    2.52      3.69      0. 
 Bq                    2.52      3.89      0. 
 Bq                    2.72     -3.91      0. 
 Bq                    2.72     -3.71      0. 
 Bq                    2.72     -3.51      0. 
 Bq                    2.72     -3.31      0. 
 Bq                    2.72     -3.11      0. 
 Bq                    2.72     -2.91      0. 
 Bq                    2.72     -2.71      0. 
 Bq                    2.72     -2.51      0. 
 Bq                    2.72     -2.31      0. 
 Bq                    2.72     -2.11      0. 
 Bq                    2.72     -1.91      0. 
 Bq                    2.72     -1.71      0. 
 Bq                    2.72     -1.51      0. 
 Bq                    2.72     -1.31      0. 
 Bq                    2.72     -1.11      0. 
 Bq                    2.72     -0.91      0. 
 Bq                    2.72     -0.71      0. 
 Bq                    2.72     -0.51      0. 
 Bq                    2.72     -0.31      0. 
 Bq                    2.72     -0.11      0. 
 Bq                    2.72      0.09      0. 
 Bq                    2.72      0.29      0. 
 Bq                    2.72      0.49      0. 
 Bq                    2.72      0.69      0. 
 Bq                    2.72      0.89      0. 
 Bq                    2.72      1.09      0. 
 Bq                    2.72      1.29      0. 
 Bq                    2.72      1.49      0. 
 Bq                    2.72      1.69      0. 
 Bq                    2.72      1.89      0. 
 Bq                    2.72      2.09      0. 
 Bq                    2.72      2.29      0. 
 Bq                    2.72      2.49      0. 
 Bq                    2.72      2.69      0. 
 Bq                    2.72      2.89      0. 
 Bq                    2.72      3.09      0. 
 Bq                    2.72      3.29      0. 
 Bq                    2.72      3.49      0. 
 Bq                    2.72      3.69      0. 
 Bq                    2.72      3.89      0. 
 Bq                    2.92     -3.91      0. 
 Bq                    2.92     -3.71      0. 
 Bq                    2.92     -3.51      0. 
 Bq                    2.92     -3.31      0. 
 Bq                    2.92     -3.11      0. 
 Bq                    2.92     -2.91      0. 
 Bq                    2.92     -2.71      0. 
 Bq                    2.92     -2.51      0. 
 Bq                    2.92     -2.31      0. 
 Bq                    2.92     -2.11      0. 
 Bq                    2.92     -1.91      0. 
 Bq                    2.92     -1.71      0. 
 Bq                    2.92     -1.51      0. 
 Bq                    2.92     -1.31      0. 
 Bq                    2.92     -1.11      0. 
 Bq                    2.92     -0.91      0. 
 Bq                    2.92     -0.71      0. 
 Bq                    2.92     -0.51      0. 
 Bq                    2.92     -0.31      0. 
 Bq                    2.92     -0.11      0. 
 Bq                    2.92      0.09      0. 
 Bq                    2.92      0.29      0. 
 Bq                    2.92      0.49      0. 
 Bq                    2.92      0.69      0. 
 Bq                    2.92      0.89      0. 
 Bq                    2.92      1.09      0. 
 Bq                    2.92      1.29      0. 
 Bq                    2.92      1.49      0. 
 Bq                    2.92      1.69      0. 
 Bq                    2.92      1.89      0. 
 Bq                    2.92      2.09      0. 
 Bq                    2.92      2.29      0. 
 Bq                    2.92      2.49      0. 
 Bq                    2.92      2.69      0. 
 Bq                    2.92      2.89      0. 
 Bq                    2.92      3.09      0. 
 Bq                    2.92      3.29      0. 
 Bq                    2.92      3.49      0. 
 Bq                    2.92      3.69      0. 
 Bq                    2.92      3.89      0. 
 Bq                    3.12     -3.91      0. 
 Bq                    3.12     -3.71      0. 
 Bq                    3.12     -3.51      0. 
 Bq                    3.12     -3.31      0. 
 Bq                    3.12     -3.11      0. 
 Bq                    3.12     -2.91      0. 
 Bq                    3.12     -2.71      0. 
 Bq                    3.12     -2.51      0. 
 Bq                    3.12     -2.31      0. 
 Bq                    3.12     -2.11      0. 
 Bq                    3.12     -1.91      0. 
 Bq                    3.12     -1.71      0. 
 Bq                    3.12     -1.51      0. 
 Bq                    3.12     -1.31      0. 
 Bq                    3.12     -1.11      0. 
 Bq                    3.12     -0.91      0. 
 Bq                    3.12     -0.71      0. 
 Bq                    3.12     -0.51      0. 
 Bq                    3.12     -0.31      0. 
 Bq                    3.12     -0.11      0. 
 Bq                    3.12      0.09      0. 
 Bq                    3.12      0.29      0. 
 Bq                    3.12      0.49      0. 
 Bq                    3.12      0.69      0. 
 Bq                    3.12      0.89      0. 
 Bq                    3.12      1.09      0. 
 Bq                    3.12      1.29      0. 
 Bq                    3.12      1.49      0. 
 Bq                    3.12      1.69      0. 
 Bq                    3.12      1.89      0. 
 Bq                    3.12      2.09      0. 
 Bq                    3.12      2.29      0. 
 Bq                    3.12      2.49      0. 
 Bq                    3.12      2.69      0. 
 Bq                    3.12      2.89      0. 
 Bq                    3.12      3.09      0. 
 Bq                    3.12      3.29      0. 
 Bq                    3.12      3.49      0. 
 Bq                    3.12      3.69      0. 
 Bq                    3.12      3.89      0. 
 Bq                    3.32     -3.91      0. 
 Bq                    3.32     -3.71      0. 
 Bq                    3.32     -3.51      0. 
 Bq                    3.32     -3.31      0. 
 Bq                    3.32     -3.11      0. 
 Bq                    3.32     -2.91      0. 
 Bq                    3.32     -2.71      0. 
 Bq                    3.32     -2.51      0. 
 Bq                    3.32     -2.31      0. 
 Bq                    3.32     -2.11      0. 
 Bq                    3.32     -1.91      0. 
 Bq                    3.32     -1.71      0. 
 Bq                    3.32     -1.51      0. 
 Bq                    3.32     -1.31      0. 
 Bq                    3.32     -1.11      0. 
 Bq                    3.32     -0.91      0. 
 Bq                    3.32     -0.71      0. 
 Bq                    3.32     -0.51      0. 
 Bq                    3.32     -0.31      0. 
 Bq                    3.32     -0.11      0. 
 Bq                    3.32      0.09      0. 
 Bq                    3.32      0.29      0. 
 Bq                    3.32      0.49      0. 
 Bq                    3.32      0.69      0. 
 Bq                    3.32      0.89      0. 
 Bq                    3.32      1.09      0. 
 Bq                    3.32      1.29      0. 
 Bq                    3.32      1.49      0. 
 Bq                    3.32      1.69      0. 
 Bq                    3.32      1.89      0. 
 Bq                    3.32      2.09      0. 
 Bq                    3.32      2.29      0. 
 Bq                    3.32      2.49      0. 
 Bq                    3.32      2.69      0. 
 Bq                    3.32      2.89      0. 
 Bq                    3.32      3.09      0. 
 Bq                    3.32      3.29      0. 
 Bq                    3.32      3.49      0. 
 Bq                    3.32      3.69      0. 
 Bq                    3.32      3.89      0. 
 Bq                    3.52     -3.91      0. 
 Bq                    3.52     -3.71      0. 
 Bq                    3.52     -3.51      0. 
 Bq                    3.52     -3.31      0. 
 Bq                    3.52     -3.11      0. 
 Bq                    3.52     -2.91      0. 
 Bq                    3.52     -2.71      0. 
 Bq                    3.52     -2.51      0. 
 Bq                    3.52     -2.31      0. 
 Bq                    3.52     -2.11      0. 
 Bq                    3.52     -1.91      0. 
 Bq                    3.52     -1.71      0. 
 Bq                    3.52     -1.51      0. 
 Bq                    3.52     -1.31      0. 
 Bq                    3.52     -1.11      0. 
 Bq                    3.52     -0.91      0. 
 Bq                    3.52     -0.71      0. 
 Bq                    3.52     -0.51      0. 
 Bq                    3.52     -0.31      0. 
 Bq                    3.52     -0.11      0. 
 Bq                    3.52      0.09      0. 
 Bq                    3.52      0.29      0. 
 Bq                    3.52      0.49      0. 
 Bq                    3.52      0.69      0. 
 Bq                    3.52      0.89      0. 
 Bq                    3.52      1.09      0. 
 Bq                    3.52      1.29      0. 
 Bq                    3.52      1.49      0. 
 Bq                    3.52      1.69      0. 
 Bq                    3.52      1.89      0. 
 Bq                    3.52      2.09      0. 
 Bq                    3.52      2.29      0. 
 Bq                    3.52      2.49      0. 
 Bq                    3.52      2.69      0. 
 Bq                    3.52      2.89      0. 
 Bq                    3.52      3.09      0. 
 Bq                    3.52      3.29      0. 
 Bq                    3.52      3.49      0. 
 Bq                    3.52      3.69      0. 
 Bq                    3.52      3.89      0. 
 Bq                    3.72     -3.91      0. 
 Bq                    3.72     -3.71      0. 
 Bq                    3.72     -3.51      0. 
 Bq                    3.72     -3.31      0. 
 Bq                    3.72     -3.11      0. 
 Bq                    3.72     -2.91      0. 
 Bq                    3.72     -2.71      0. 
 Bq                    3.72     -2.51      0. 
 Bq                    3.72     -2.31      0. 
 Bq                    3.72     -2.11      0. 
 Bq                    3.72     -1.91      0. 
 Bq                    3.72     -1.71      0. 
 Bq                    3.72     -1.51      0. 
 Bq                    3.72     -1.31      0. 
 Bq                    3.72     -1.11      0. 
 Bq                    3.72     -0.91      0. 
 Bq                    3.72     -0.71      0. 
 Bq                    3.72     -0.51      0. 
 Bq                    3.72     -0.31      0. 
 Bq                    3.72     -0.11      0. 
 Bq                    3.72      0.09      0. 
 Bq                    3.72      0.29      0. 
 Bq                    3.72      0.49      0. 
 Bq                    3.72      0.69      0. 
 Bq                    3.72      0.89      0. 
 Bq                    3.72      1.09      0. 
 Bq                    3.72      1.29      0. 
 Bq                    3.72      1.49      0. 
 Bq                    3.72      1.69      0. 
 Bq                    3.72      1.89      0. 
 Bq                    3.72      2.09      0. 
 Bq                    3.72      2.29      0. 
 Bq                    3.72      2.49      0. 
 Bq                    3.72      2.69      0. 
 Bq                    3.72      2.89      0. 
 Bq                    3.72      3.09      0. 
 Bq                    3.72      3.29      0. 
 Bq                    3.72      3.49      0. 
 Bq                    3.72      3.69      0. 
 Bq                    3.72      3.89      0. 
 Bq                    3.92     -3.91      0. 
 Bq                    3.92     -3.71      0. 
 Bq                    3.92     -3.51      0. 
 Bq                    3.92     -3.31      0. 
 Bq                    3.92     -3.11      0. 
 Bq                    3.92     -2.91      0. 
 Bq                    3.92     -2.71      0. 
 Bq                    3.92     -2.51      0. 
 Bq                    3.92     -2.31      0. 
 Bq                    3.92     -2.11      0. 
 Bq                    3.92     -1.91      0. 
 Bq                    3.92     -1.71      0. 
 Bq                    3.92     -1.51      0. 
 Bq                    3.92     -1.31      0. 
 Bq                    3.92     -1.11      0. 
 Bq                    3.92     -0.91      0. 
 Bq                    3.92     -0.71      0. 
 Bq                    3.92     -0.51      0. 
 Bq                    3.92     -0.31      0. 
 Bq                    3.92     -0.11      0. 
 Bq                    3.92      0.09      0. 
 Bq                    3.92      0.29      0. 
 Bq                    3.92      0.49      0. 
 Bq                    3.92      0.69      0. 
 Bq                    3.92      0.89      0. 
 Bq                    3.92      1.09      0. 
 Bq                    3.92      1.29      0. 
 Bq                    3.92      1.49      0. 
 Bq                    3.92      1.69      0. 
 Bq                    3.92      1.89      0. 
 Bq                    3.92      2.09      0. 
[...]
 8,2.29,0.\Bq,0,-1.08,2.49,0.\Bq,0,-1.08,2.69,0.\Bq,0,-1.08,2.89,0.\Bq,
 0,-1.08,3.09,0.\Bq,0,-1.08,3.29,0.\Bq,0,-1.08,3.49,0.\Bq,0,-1.08,3.69,
 0.\Bq,0,-1.08,3.89,0.\Bq,0,-0.88,-3.91,0.\Bq,0,-0.88,-3.71,0.\Bq,0,-0.
 88,-3.51,0.\Bq,0,-0.88,-3.31,0.\Bq,0,-0.88,-3.11,0.\Bq,0,-0.88,-2.91,0
 .\Bq,0,-0.88,-2.71,0.\Bq,0,-0.88,-2.51,0.\Bq,0,-0.88,-2.31,0.\Bq,0,-0.
 88,-2.11,0.\Bq,0,-0.88,-1.91,0.\Bq,0,-0.88,-1.71,0.\Bq,0,-0.88,-1.51,0
 .\Bq,0,-0.88,-1.31,0.\Bq,0,-0.88,-1.11,0.\Bq,0,-0.88,-0.91,0.\Bq,0,-0.
 88,-0.71,0.\Bq,0,-0.88,-0.51,0.\Bq,0,-0.88,-0.31,0.\Bq,0,-0.88,-0.11,0
 .\Bq,0,-0.88,0.09,0.\Bq,0,-0.88,0.29,0.\Bq,0,-0.88,0.49,0.\Bq,0,-0.88,
 0.69,0.\Bq,0,-0.88,0.89,0.\Bq,0,-0.88,1.09,0.\Bq,0,-0.88,1.29,0.\Bq,0,
 -0.88,1.49,0.\Bq,0,-0.88,1.69,0.\Bq,0,-0.88,1.89,0.\Bq,0,-0.88,2.09,0.
 \Bq,0,-0.88,2.29,0.\Bq,0,-0.88,2.49,0.\Bq,0,-0.88,2.69,0.\Bq,0,-0.88,2
 .89,0.\Bq,0,-0.88,3.09,0.\Bq,0,-0.88,3.29,0.\Bq,0,-0.88,3.49,0.\Bq,0,-
 0.88,3.69,0.\Bq,0,-0.88,3.89,0.\Bq,0,-0.68,-3.91,0.\Bq,0,-0.68,-3.71,0
 .\Bq,0,-0.68,-3.51,0.\Bq,0,-0.68,-3.31,0.\Bq,0,-0.68,-3.11,0.\Bq,0,-0.
 68,-2.91,0.\Bq,0,-0.68,-2.71,0.\Bq,0,-0.68,-2.51,0.\Bq,0,-0.68,-2.31,0
 .\Bq,0,-0.68,-2.11,0.\Bq,0,-0.68,-1.91,0.\Bq,0,-0.68,-1.71,0.\Bq,0,-0.
 68,-1.51,0.\Bq,0,-0.68,-1.31,0.\Bq,0,-0.68,-1.11,0.\Bq,0,-0.68,-0.91,0
 .\Bq,0,-0.68,-0.71,0.\Bq,0,-0.68,-0.51,0.\Bq,0,-0.68,-0.31,0.\Bq,0,-0.
 68,-0.11,0.\Bq,0,-0.68,0.09,0.\Bq,0,-0.68,0.29,0.\Bq,0,-0.68,0.49,0.\B
 q,0,-0.68,0.69,0.\Bq,0,-0.68,0.89,0.\Bq,0,-0.68,1.09,0.\Bq,0,-0.68,1.2
 9,0.\Bq,0,-0.68,1.49,0.\Bq,0,-0.68,1.69,0.\Bq,0,-0.68,1.89,0.\Bq,0,-0.
 68,2.09,0.\Bq,0,-0.68,2.29,0.\Bq,0,-0.68,2.49,0.\Bq,0,-0.68,2.69,0.\Bq
 ,0,-0.68,2.89,0.\Bq,0,-0.68,3.09,0.\Bq,0,-0.68,3.29,0.\Bq,0,-0.68,3.49
 ,0.\Bq,0,-0.68,3.69,0.\Bq,0,-0.68,3.89,0.\Bq,0,-0.48,-3.91,0.\Bq,0,-0.
 48,-3.71,0.\Bq,0,-0.48,-3.51,0.\Bq,0,-0.48,-3.31,0.\Bq,0,-0.48,-3.11,0
 .\Bq,0,-0.48,-2.91,0.\Bq,0,-0.48,-2.71,0.\Bq,0,-0.48,-2.51,0.\Bq,0,-0.
 48,-2.31,0.\Bq,0,-0.48,-2.11,0.\Bq,0,-0.48,-1.91,0.\Bq,0,-0.48,-1.71,0
 .\Bq,0,-0.48,-1.51,0.\Bq,0,-0.48,-1.31,0.\Bq,0,-0.48,-1.11,0.\Bq,0,-0.
 48,-0.91,0.\Bq,0,-0.48,-0.71,0.\Bq,0,-0.48,-0.51,0.\Bq,0,-0.48,-0.31,0
 .\Bq,0,-0.48,-0.11,0.\Bq,0,-0.48,0.09,0.\Bq,0,-0.48,0.29,0.\Bq,0,-0.48
 ,0.49,0.\Bq,0,-0.48,0.69,0.\Bq,0,-0.48,0.89,0.\Bq,0,-0.48,1.09,0.\Bq,0
 ,-0.48,1.29,0.\Bq,0,-0.48,1.49,0.\Bq,0,-0.48,1.69,0.\Bq,0,-0.48,1.89,0
 .\Bq,0,-0.48,2.09,0.\Bq,0,-0.48,2.29,0.\Bq,0,-0.48,2.49,0.\Bq,0,-0.48,
 2.69,0.\Bq,0,-0.48,2.89,0.\Bq,0,-0.48,3.09,0.\Bq,0,-0.48,3.29,0.\Bq,0,
 -0.48,3.49,0.\Bq,0,-0.48,3.69,0.\Bq,0,-0.48,3.89,0.\Bq,0,-0.28,-3.91,0
 .\Bq,0,-0.28,-3.71,0.\Bq,0,-0.28,-3.51,0.\Bq,0,-0.28,-3.31,0.\Bq,0,-0.
 28,-3.11,0.\Bq,0,-0.28,-2.91,0.\Bq,0,-0.28,-2.71,0.\Bq,0,-0.28,-2.51,0
 .\Bq,0,-0.28,-2.31,0.\Bq,0,-0.28,-2.11,0.\Bq,0,-0.28,-1.91,0.\Bq,0,-0.
 28,-1.71,0.\Bq,0,-0.28,-1.51,0.\Bq,0,-0.28,-1.31,0.\Bq,0,-0.28,-1.11,0
 .\Bq,0,-0.28,-0.91,0.\Bq,0,-0.28,-0.71,0.\Bq,0,-0.28,-0.51,0.\Bq,0,-0.
 28,-0.31,0.\Bq,0,-0.28,-0.11,0.\Bq,0,-0.28,0.09,0.\Bq,0,-0.28,0.29,0.\
 Bq,0,-0.28,0.49,0.\Bq,0,-0.28,0.69,0.\Bq,0,-0.28,0.89,0.\Bq,0,-0.28,1.
 09,0.\Bq,0,-0.28,1.29,0.\Bq,0,-0.28,1.49,0.\Bq,0,-0.28,1.69,0.\Bq,0,-0
 .28,1.89,0.\Bq,0,-0.28,2.09,0.\Bq,0,-0.28,2.29,0.\Bq,0,-0.28,2.49,0.\B
 q,0,-0.28,2.69,0.\Bq,0,-0.28,2.89,0.\Bq,0,-0.28,3.09,0.\Bq,0,-0.28,3.2
 9,0.\Bq,0,-0.28,3.49,0.\Bq,0,-0.28,3.69,0.\Bq,0,-0.28,3.89,0.\Bq,0,-0.
 08,-3.91,0.\Bq,0,-0.08,-3.71,0.\Bq,0,-0.08,-3.51,0.\Bq,0,-0.08,-3.31,0
 .\Bq,0,-0.08,-3.11,0.\Bq,0,-0.08,-2.91,0.\Bq,0,-0.08,-2.71,0.\Bq,0,-0.
 08,-2.51,0.\Bq,0,-0.08,-2.31,0.\Bq,0,-0.08,-2.11,0.\Bq,0,-0.08,-1.91,0
 .\Bq,0,-0.08,-1.71,0.\Bq,0,-0.08,-1.51,0.\Bq,0,-0.08,-1.31,0.\Bq,0,-0.
 08,-1.11,0.\Bq,0,-0.08,-0.91,0.\Bq,0,-0.08,-0.71,0.\Bq,0,-0.08,-0.51,0
 .\Bq,0,-0.08,-0.31,0.\Bq,0,-0.08,-0.11,0.\Bq,0,-0.08,0.09,0.\Bq,0,-0.0
 8,0.29,0.\Bq,0,-0.08,0.49,0.\Bq,0,-0.08,0.69,0.\Bq,0,-0.08,0.89,0.\Bq,
 0,-0.08,1.09,0.\Bq,0,-0.08,1.29,0.\Bq,0,-0.08,1.49,0.\Bq,0,-0.08,1.69,
 0.\Bq,0,-0.08,1.89,0.\Bq,0,-0.08,2.09,0.\Bq,0,-0.08,2.29,0.\Bq,0,-0.08
 ,2.49,0.\Bq,0,-0.08,2.69,0.\Bq,0,-0.08,2.89,0.\Bq,0,-0.08,3.09,0.\Bq,0
 ,-0.08,3.29,0.\Bq,0,-0.08,3.49,0.\Bq,0,-0.08,3.69,0.\Bq,0,-0.08,3.89,0
 .\Bq,0,0.12,-3.91,0.\Bq,0,0.12,-3.71,0.\Bq,0,0.12,-3.51,0.\Bq,0,0.12,-
 3.31,0.\Bq,0,0.12,-3.11,0.\Bq,0,0.12,-2.91,0.\Bq,0,0.12,-2.71,0.\Bq,0,
 0.12,-2.51,0.\Bq,0,0.12,-2.31,0.\Bq,0,0.12,-2.11,0.\Bq,0,0.12,-1.91,0.
 \Bq,0,0.12,-1.71,0.\Bq,0,0.12,-1.51,0.\Bq,0,0.12,-1.31,0.\Bq,0,0.12,-1
 .11,0.\Bq,0,0.12,-0.91,0.\Bq,0,0.12,-0.71,0.\Bq,0,0.12,-0.51,0.\Bq,0,0
 .12,-0.31,0.\Bq,0,0.12,-0.11,0.\Bq,0,0.12,0.09,0.\Bq,0,0.12,0.29,0.\Bq
 ,0,0.12,0.49,0.\Bq,0,0.12,0.69,0.\Bq,0,0.12,0.89,0.\Bq,0,0.12,1.09,0.\
 Bq,0,0.12,1.29,0.\Bq,0,0.12,1.49,0.\Bq,0,0.12,1.69,0.\Bq,0,0.12,1.89,0
 .\Bq,0,0.12,2.09,0.\Bq,0,0.12,2.29,0.\Bq,0,0.12,2.49,0.\Bq,0,0.12,2.69
 ,0.\Bq,0,0.12,2.89,0.\Bq,0,0.12,3.09,0.\Bq,0,0.12,3.29,0.\Bq,0,0.12,3.
 49,0.\Bq,0,0.12,3.69,0.\Bq,0,0.12,3.89,0.\Bq,0,0.32,-3.91,0.\Bq,0,0.32
 ,-3.71,0.\Bq,0,0.32,-3.51,0.\Bq,0,0.32,-3.31,0.\Bq,0,0.32,-3.11,0.\Bq,
 0,0.32,-2.91,0.\Bq,0,0.32,-2.71,0.\Bq,0,0.32,-2.51,0.\Bq,0,0.32,-2.31,
 0.\Bq,0,0.32,-2.11,0.\Bq,0,0.32,-1.91,0.\Bq,0,0.32,-1.71,0.\Bq,0,0.32,
 -1.51,0.\Bq,0,0.32,-1.31,0.\Bq,0,0.32,-1.11,0.\Bq,0,0.32,-0.91,0.\Bq,0
 ,0.32,-0.71,0.\Bq,0,0.32,-0.51,0.\Bq,0,0.32,-0.31,0.\Bq,0,0.32,-0.11,0
 .\Bq,0,0.32,0.09,0.\Bq,0,0.32,0.29,0.\Bq,0,0.32,0.49,0.\Bq,0,0.32,0.69
 ,0.\Bq,0,0.32,0.89,0.\Bq,0,0.32,1.09,0.\Bq,0,0.32,1.29,0.\Bq,0,0.32,1.
 49,0.\Bq,0,0.32,1.69,0.\Bq,0,0.32,1.89,0.\Bq,0,0.32,2.09,0.\Bq,0,0.32,
 2.29,0.\Bq,0,0.32,2.49,0.\Bq,0,0.32,2.69,0.\Bq,0,0.32,2.89,0.\Bq,0,0.3
 2,3.09,0.\Bq,0,0.32,3.29,0.\Bq,0,0.32,3.49,0.\Bq,0,0.32,3.69,0.\Bq,0,0
 .32,3.89,0.\Bq,0,0.52,-3.91,0.\Bq,0,0.52,-3.71,0.\Bq,0,0.52,-3.51,0.\B
 q,0,0.52,-3.31,0.\Bq,0,0.52,-3.11,0.\Bq,0,0.52,-2.91,0.\Bq,0,0.52,-2.7
 1,0.\Bq,0,0.52,-2.51,0.\Bq,0,0.52,-2.31,0.\Bq,0,0.52,-2.11,0.\Bq,0,0.5
 2,-1.91,0.\Bq,0,0.52,-1.71,0.\Bq,0,0.52,-1.51,0.\Bq,0,0.52,-1.31,0.\Bq
 ,0,0.52,-1.11,0.\Bq,0,0.52,-0.91,0.\Bq,0,0.52,-0.71,0.\Bq,0,0.52,-0.51
 ,0.\Bq,0,0.52,-0.31,0.\Bq,0,0.52,-0.11,0.\Bq,0,0.52,0.09,0.\Bq,0,0.52,
 0.29,0.\Bq,0,0.52,0.49,0.\Bq,0,0.52,0.69,0.\Bq,0,0.52,0.89,0.\Bq,0,0.5
 2,1.09,0.\Bq,0,0.52,1.29,0.\Bq,0,0.52,1.49,0.\Bq,0,0.52,1.69,0.\Bq,0,0
 .52,1.89,0.\Bq,0,0.52,2.09,0.\Bq,0,0.52,2.29,0.\Bq,0,0.52,2.49,0.\Bq,0
 ,0.52,2.69,0.\Bq,0,0.52,2.89,0.\Bq,0,0.52,3.09,0.\Bq,0,0.52,3.29,0.\Bq
 ,0,0.52,3.49,0.\Bq,0,0.52,3.69,0.\Bq,0,0.52,3.89,0.\Bq,0,0.72,-3.91,0.
 \Bq,0,0.72,-3.71,0.\Bq,0,0.72,-3.51,0.\Bq,0,0.72,-3.31,0.\Bq,0,0.72,-3
 .11,0.\Bq,0,0.72,-2.91,0.\Bq,0,0.72,-2.71,0.\Bq,0,0.72,-2.51,0.\Bq,0,0
 .72,-2.31,0.\Bq,0,0.72,-2.11,0.\Bq,0,0.72,-1.91,0.\Bq,0,0.72,-1.71,0.\
 Bq,0,0.72,-1.51,0.\Bq,0,0.72,-1.31,0.\Bq,0,0.72,-1.11,0.\Bq,0,0.72,-0.
 91,0.\Bq,0,0.72,-0.71,0.\Bq,0,0.72,-0.51,0.\Bq,0,0.72,-0.31,0.\Bq,0,0.
 72,-0.11,0.\Bq,0,0.72,0.09,0.\Bq,0,0.72,0.29,0.\Bq,0,0.72,0.49,0.\Bq,0
 ,0.72,0.69,0.\Bq,0,0.72,0.89,0.\Bq,0,0.72,1.09,0.\Bq,0,0.72,1.29,0.\Bq
 ,0,0.72,1.49,0.\Bq,0,0.72,1.69,0.\Bq,0,0.72,1.89,0.\Bq,0,0.72,2.09,0.\
 Bq,0,0.72,2.29,0.\Bq,0,0.72,2.49,0.\Bq,0,0.72,2.69,0.\Bq,0,0.72,2.89,0
 .\Bq,0,0.72,3.09,0.\Bq,0,0.72,3.29,0.\Bq,0,0.72,3.49,0.\Bq,0,0.72,3.69
 ,0.\Bq,0,0.72,3.89,0.\Bq,0,0.92,-3.91,0.\Bq,0,0.92,-3.71,0.\Bq,0,0.92,
 -3.51,0.\Bq,0,0.92,-3.31,0.\Bq,0,0.92,-3.11,0.\Bq,0,0.92,-2.91,0.\Bq,0
 ,0.92,-2.71,0.\Bq,0,0.92,-2.51,0.\Bq,0,0.92,-2.31,0.\Bq,0,0.92,-2.11,0
 .\Bq,0,0.92,-1.91,0.\Bq,0,0.92,-1.71,0.\Bq,0,0.92,-1.51,0.\Bq,0,0.92,-
 1.31,0.\Bq,0,0.92,-1.11,0.\Bq,0,0.92,-0.91,0.\Bq,0,0.92,-0.71,0.\Bq,0,
 0.92,-0.51,0.\Bq,0,0.92,-0.31,0.\Bq,0,0.92,-0.11,0.\Bq,0,0.92,0.09,0.\
 Bq,0,0.92,0.29,0.\Bq,0,0.92,0.49,0.\Bq,0,0.92,0.69,0.\Bq,0,0.92,0.89,0
 .\Bq,0,0.92,1.09,0.\Bq,0,0.92,1.29,0.\Bq,0,0.92,1.49,0.\Bq,0,0.92,1.69
 ,0.\Bq,0,0.92,1.89,0.\Bq,0,0.92,2.09,0.\Bq,0,0.92,2.29,0.\Bq,0,0.92,2.
 49,0.\Bq,0,0.92,2.69,0.\Bq,0,0.92,2.89,0.\Bq,0,0.92,3.09,0.\Bq,0,0.92,
 3.29,0.\Bq,0,0.92,3.49,0.\Bq,0,0.92,3.69,0.\Bq,0,0.92,3.89,0.\Bq,0,1.1
 2,-3.91,0.\Bq,0,1.12,-3.71,0.\Bq,0,1.12,-3.51,0.\Bq,0,1.12,-3.31,0.\Bq
 ,0,1.12,-3.11,0.\Bq,0,1.12,-2.91,0.\Bq,0,1.12,-2.71,0.\Bq,0,1.12,-2.51
 ,0.\Bq,0,1.12,-2.31,0.\Bq,0,1.12,-2.11,0.\Bq,0,1.12,-1.91,0.\Bq,0,1.12
 ,-1.71,0.\Bq,0,1.12,-1.51,0.\Bq,0,1.12,-1.31,0.\Bq,0,1.12,-1.11,0.\Bq,
 0,1.12,-0.91,0.\Bq,0,1.12,-0.71,0.\Bq,0,1.12,-0.51,0.\Bq,0,1.12,-0.31,
 0.\Bq,0,1.12,-0.11,0.\Bq,0,1.12,0.09,0.\Bq,0,1.12,0.29,0.\Bq,0,1.12,0.
 49,0.\Bq,0,1.12,0.69,0.\Bq,0,1.12,0.89,0.\Bq,0,1.12,1.09,0.\Bq,0,1.12,
 1.29,0.\Bq,0,1.12,1.49,0.\Bq,0,1.12,1.69,0.\Bq,0,1.12,1.89,0.\Bq,0,1.1
 2,2.09,0.\Bq,0,1.12,2.29,0.\Bq,0,1.12,2.49,0.\Bq,0,1.12,2.69,0.\Bq,0,1
 .12,2.89,0.\Bq,0,1.12,3.09,0.\Bq,0,1.12,3.29,0.\Bq,0,1.12,3.49,0.\Bq,0
 ,1.12,3.69,0.\Bq,0,1.12,3.89,0.\Bq,0,1.32,-3.91,0.\Bq,0,1.32,-3.71,0.\
 Bq,0,1.32,-3.51,0.\Bq,0,1.32,-3.31,0.\Bq,0,1.32,-3.11,0.\Bq,0,1.32,-2.
 91,0.\Bq,0,1.32,-2.71,0.\Bq,0,1.32,-2.51,0.\Bq,0,1.32,-2.31,0.\Bq,0,1.
 32,-2.11,0.\Bq,0,1.32,-1.91,0.\Bq,0,1.32,-1.71,0.\Bq,0,1.32,-1.51,0.\B
 q,0,1.32,-1.31,0.\Bq,0,1.32,-1.11,0.\Bq,0,1.32,-0.91,0.\Bq,0,1.32,-0.7
 1,0.\Bq,0,1.32,-0.51,0.\Bq,0,1.32,-0.31,0.\Bq,0,1.32,-0.11,0.\Bq,0,1.3
 2,0.09,0.\Bq,0,1.32,0.29,0.\Bq,0,1.32,0.49,0.\Bq,0,1.32,0.69,0.\Bq,0,1
 .32,0.89,0.\Bq,0,1.32,1.09,0.\Bq,0,1.32,1.29,0.\Bq,0,1.32,1.49,0.\Bq,0
 ,1.32,1.69,0.\Bq,0,1.32,1.89,0.\Bq,0,1.32,2.09,0.\Bq,0,1.32,2.29,0.\Bq
 ,0,1.32,2.49,0.\Bq,0,1.32,2.69,0.\Bq,0,1.32,2.89,0.\Bq,0,1.32,3.09,0.\
 Bq,0,1.32,3.29,0.\Bq,0,1.32,3.49,0.\Bq,0,1.32,3.69,0.\Bq,0,1.32,3.89,0
 .\Bq,0,1.52,-3.91,0.\Bq,0,1.52,-3.71,0.\Bq,0,1.52,-3.51,0.\Bq,0,1.52,-
 3.31,0.\Bq,0,1.52,-3.11,0.\Bq,0,1.52,-2.91,0.\Bq,0,1.52,-2.71,0.\Bq,0,
 1.52,-2.51,0.\Bq,0,1.52,-2.31,0.\Bq,0,1.52,-2.11,0.\Bq,0,1.52,-1.91,0.
 \Bq,0,1.52,-1.71,0.\Bq,0,1.52,-1.51,0.\Bq,0,1.52,-1.31,0.\Bq,0,1.52,-1
 .11,0.\Bq,0,1.52,-0.91,0.\Bq,0,1.52,-0.71,0.\Bq,0,1.52,-0.51,0.\Bq,0,1
 .52,-0.31,0.\Bq,0,1.52,-0.11,0.\Bq,0,1.52,0.09,0.\Bq,0,1.52,0.29,0.\Bq
 ,0,1.52,0.49,0.\Bq,0,1.52,0.69,0.\Bq,0,1.52,0.89,0.\Bq,0,1.52,1.09,0.\
 Bq,0,1.52,1.29,0.\Bq,0,1.52,1.49,0.\Bq,0,1.52,1.69,0.\Bq,0,1.52,1.89,0
 .\Bq,0,1.52,2.09,0.\Bq,0,1.52,2.29,0.\Bq,0,1.52,2.49,0.\Bq,0,1.52,2.69
 ,0.\Bq,0,1.52,2.89,0.\Bq,0,1.52,3.09,0.\Bq,0,1.52,3.29,0.\Bq,0,1.52,3.
 49,0.\Bq,0,1.52,3.69,0.\Bq,0,1.52,3.89,0.\Bq,0,1.72,-3.91,0.\Bq,0,1.72
 ,-3.71,0.\Bq,0,1.72,-3.51,0.\Bq,0,1.72,-3.31,0.\Bq,0,1.72,-3.11,0.\Bq,
 0,1.72,-2.91,0.\Bq,0,1.72,-2.71,0.\Bq,0,1.72,-2.51,0.\Bq,0,1.72,-2.31,
 0.\Bq,0,1.72,-2.11,0.\Bq,0,1.72,-1.91,0.\Bq,0,1.72,-1.71,0.\Bq,0,1.72,
 -1.51,0.\Bq,0,1.72,-1.31,0.\Bq,0,1.72,-1.11,0.\Bq,0,1.72,-0.91,0.\Bq,0
 ,1.72,-0.71,0.\Bq,0,1.72,-0.51,0.\Bq,0,1.72,-0.31,0.\Bq,0,1.72,-0.11,0
 .\Bq,0,1.72,0.09,0.\Bq,0,1.72,0.29,0.\Bq,0,1.72,0.49,0.\Bq,0,1.72,0.69
 ,0.\Bq,0,1.72,0.89,0.\Bq,0,1.72,1.09,0.\Bq,0,1.72,1.29,0.\Bq,0,1.72,1.
 49,0.\Bq,0,1.72,1.69,0.\Bq,0,1.72,1.89,0.\Bq,0,1.72,2.09,0.\Bq,0,1.72,
 2.29,0.\Bq,0,1.72,2.49,0.\Bq,0,1.72,2.69,0.\Bq,0,1.72,2.89,0.\Bq,0,1.7
 2,3.09,0.\Bq,0,1.72,3.29,0.\Bq,0,1.72,3.49,0.\Bq,0,1.72,3.69,0.\Bq,0,1
 .72,3.89,0.\Bq,0,1.92,-3.91,0.\Bq,0,1.92,-3.71,0.\Bq,0,1.92,-3.51,0.\B
 q,0,1.92,-3.31,0.\Bq,0,1.92,-3.11,0.\Bq,0,1.92,-2.91,0.\Bq,0,1.92,-2.7
 1,0.\Bq,0,1.92,-2.51,0.\Bq,0,1.92,-2.31,0.\Bq,0,1.92,-2.11,0.\Bq,0,1.9
 2,-1.91,0.\Bq,0,1.92,-1.71,0.\Bq,0,1.92,-1.51,0.\Bq,0,1.92,-1.31,0.\Bq
 ,0,1.92,-1.11,0.\Bq,0,1.92,-0.91,0.\Bq,0,1.92,-0.71,0.\Bq,0,1.92,-0.51
 ,0.\Bq,0,1.92,-0.31,0.\Bq,0,1.92,-0.11,0.\Bq,0,1.92,0.09,0.\Bq,0,1.92,
 0.29,0.\Bq,0,1.92,0.49,0.\Bq,0,1.92,0.69,0.\Bq,0,1.92,0.89,0.\Bq,0,1.9
 2,1.09,0.\Bq,0,1.92,1.29,0.\Bq,0,1.92,1.49,0.\Bq,0,1.92,1.69,0.\Bq,0,1
 .92,1.89,0.\Bq,0,1.92,2.09,0.\Bq,0,1.92,2.29,0.\Bq,0,1.92,2.49,0.\Bq,0
 ,1.92,2.69,0.\Bq,0,1.92,2.89,0.\Bq,0,1.92,3.09,0.\Bq,0,1.92,3.29,0.\Bq
 ,0,1.92,3.49,0.\Bq,0,1.92,3.69,0.\Bq,0,1.92,3.89,0.\Bq,0,2.12,-3.91,0.
 \Bq,0,2.12,-3.71,0.\Bq,0,2.12,-3.51,0.\Bq,0,2.12,-3.31,0.\Bq,0,2.12,-3
 .11,0.\Bq,0,2.12,-2.91,0.\Bq,0,2.12,-2.71,0.\Bq,0,2.12,-2.51,0.\Bq,0,2
 .12,-2.31,0.\Bq,0,2.12,-2.11,0.\Bq,0,2.12,-1.91,0.\Bq,0,2.12,-1.71,0.\
 Bq,0,2.12,-1.51,0.\Bq,0,2.12,-1.31,0.\Bq,0,2.12,-1.11,0.\Bq,0,2.12,-0.
 91,0.\Bq,0,2.12,-0.71,0.\Bq,0,2.12,-0.51,0.\Bq,0,2.12,-0.31,0.\Bq,0,2.
 12,-0.11,0.\Bq,0,2.12,0.09,0.\Bq,0,2.12,0.29,0.\Bq,0,2.12,0.49,0.\Bq,0
 ,2.12,0.69,0.\Bq,0,2.12,0.89,0.\Bq,0,2.12,1.09,0.\Bq,0,2.12,1.29,0.\Bq
 ,0,2.12,1.49,0.\Bq,0,2.12,1.69,0.\Bq,0,2.12,1.89,0.\Bq,0,2.12,2.09,0.\
 Bq,0,2.12,2.29,0.\Bq,0,2.12,2.49,0.\Bq,0,2.12,2.69,0.\Bq,0,2.12,2.89,0
 .\Bq,0,2.12,3.09,0.\Bq,0,2.12,3.29,0.\Bq,0,2.12,3.49,0.\Bq,0,2.12,3.69
 ,0.\Bq,0,2.12,3.89,0.\Bq,0,2.32,-3.91,0.\Bq,0,2.32,-3.71,0.\Bq,0,2.32,
 -3.51,0.\Bq,0,2.32,-3.31,0.\Bq,0,2.32,-3.11,0.\Bq,0,2.32,-2.91,0.\Bq,0
 ,2.32,-2.71,0.\Bq,0,2.32,-2.51,0.\Bq,0,2.32,-2.31,0.\Bq,0,2.32,-2.11,0
 .\Bq,0,2.32,-1.91,0.\Bq,0,2.32,-1.71,0.\Bq,0,2.32,-1.51,0.\Bq,0,2.32,-
 1.31,0.\Bq,0,2.32,-1.11,0.\Bq,0,2.32,-0.91,0.\Bq,0,2.32,-0.71,0.\Bq,0,
 2.32,-0.51,0.\Bq,0,2.32,-0.31,0.\Bq,0,2.32,-0.11,0.\Bq,0,2.32,0.09,0.\
 Bq,0,2.32,0.29,0.\Bq,0,2.32,0.49,0.\Bq,0,2.32,0.69,0.\Bq,0,2.32,0.89,0
 .\Bq,0,2.32,1.09,0.\Bq,0,2.32,1.29,0.\Bq,0,2.32,1.49,0.\Bq,0,2.32,1.69
 ,0.\Bq,0,2.32,1.89,0.\Bq,0,2.32,2.09,0.\Bq,0,2.32,2.29,0.\Bq,0,2.32,2.
 49,0.\Bq,0,2.32,2.69,0.\Bq,0,2.32,2.89,0.\Bq,0,2.32,3.09,0.\Bq,0,2.32,
 3.29,0.\Bq,0,2.32,3.49,0.\Bq,0,2.32,3.69,0.\Bq,0,2.32,3.89,0.\Bq,0,2.5
 2,-3.91,0.\Bq,0,2.52,-3.71,0.\Bq,0,2.52,-3.51,0.\Bq,0,2.52,-3.31,0.\Bq
 ,0,2.52,-3.11,0.\Bq,0,2.52,-2.91,0.\Bq,0,2.52,-2.71,0.\Bq,0,2.52,-2.51
 ,0.\Bq,0,2.52,-2.31,0.\Bq,0,2.52,-2.11,0.\Bq,0,2.52,-1.91,0.\Bq,0,2.52
 ,-1.71,0.\Bq,0,2.52,-1.51,0.\Bq,0,2.52,-1.31,0.\Bq,0,2.52,-1.11,0.\Bq,
 0,2.52,-0.91,0.\Bq,0,2.52,-0.71,0.\Bq,0,2.52,-0.51,0.\Bq,0,2.52,-0.31,
 0.\Bq,0,2.52,-0.11,0.\Bq,0,2.52,0.09,0.\Bq,0,2.52,0.29,0.\Bq,0,2.52,0.
 49,0.\Bq,0,2.52,0.69,0.\Bq,0,2.52,0.89,0.\Bq,0,2.52,1.09,0.\Bq,0,2.52,
 1.29,0.\Bq,0,2.52,1.49,0.\Bq,0,2.52,1.69,0.\Bq,0,2.52,1.89,0.\Bq,0,2.5
 2,2.09,0.\Bq,0,2.52,2.29,0.\Bq,0,2.52,2.49,0.\Bq,0,2.52,2.69,0.\Bq,0,2
 .52,2.89,0.\Bq,0,2.52,3.09,0.\Bq,0,2.52,3.29,0.\Bq,0,2.52,3.49,0.\Bq,0
 ,2.52,3.69,0.\Bq,0,2.52,3.89,0.\Bq,0,2.72,-3.91,0.\Bq,0,2.72,-3.71,0.\
 Bq,0,2.72,-3.51,0.\Bq,0,2.72,-3.31,0.\Bq,0,2.72,-3.11,0.\Bq,0,2.72,-2.
 91,0.\Bq,0,2.72,-2.71,0.\Bq,0,2.72,-2.51,0.\Bq,0,2.72,-2.31,0.\Bq,0,2.
 72,-2.11,0.\Bq,0,2.72,-1.91,0.\Bq,0,2.72,-1.71,0.\Bq,0,2.72,-1.51,0.\B
 q,0,2.72,-1.31,0.\Bq,0,2.72,-1.11,0.\Bq,0,2.72,-0.91,0.\Bq,0,2.72,-0.7
 1,0.\Bq,0,2.72,-0.51,0.\Bq,0,2.72,-0.31,0.\Bq,0,2.72,-0.11,0.\Bq,0,2.7
 2,0.09,0.\Bq,0,2.72,0.29,0.\Bq,0,2.72,0.49,0.\Bq,0,2.72,0.69,0.\Bq,0,2
 .72,0.89,0.\Bq,0,2.72,1.09,0.\Bq,0,2.72,1.29,0.\Bq,0,2.72,1.49,0.\Bq,0
 ,2.72,1.69,0.\Bq,0,2.72,1.89,0.\Bq,0,2.72,2.09,0.\Bq,0,2.72,2.29,0.\Bq
 ,0,2.72,2.49,0.\Bq,0,2.72,2.69,0.\Bq,0,2.72,2.89,0.\Bq,0,2.72,3.09,0.\
 Bq,0,2.72,3.29,0.\Bq,0,2.72,3.49,0.\Bq,0,2.72,3.69,0.\Bq,0,2.72,3.89,0
 .\Bq,0,2.92,-3.91,0.\Bq,0,2.92,-3.71,0.\Bq,0,2.92,-3.51,0.\Bq,0,2.92,-
 3.31,0.\Bq,0,2.92,-3.11,0.\Bq,0,2.92,-2.91,0.\Bq,0,2.92,-2.71,0.\Bq,0,
 2.92,-2.51,0.\Bq,0,2.92,-2.31,0.\Bq,0,2.92,-2.11,0.\Bq,0,2.92,-1.91,0.
 \Bq,0,2.92,-1.71,0.\Bq,0,2.92,-1.51,0.\Bq,0,2.92,-1.31,0.\Bq,0,2.92,-1
 .11,0.\Bq,0,2.92,-0.91,0.\Bq,0,2.92,-0.71,0.\Bq,0,2.92,-0.51,0.\Bq,0,2
 .92,-0.31,0.\Bq,0,2.92,-0.11,0.\Bq,0,2.92,0.09,0.\Bq,0,2.92,0.29,0.\Bq
 ,0,2.92,0.49,0.\Bq,0,2.92,0.69,0.\Bq,0,2.92,0.89,0.\Bq,0,2.92,1.09,0.\
 Bq,0,2.92,1.29,0.\Bq,0,2.92,1.49,0.\Bq,0,2.92,1.69,0.\Bq,0,2.92,1.89,0
 .\Bq,0,2.92,2.09,0.\Bq,0,2.92,2.29,0.\Bq,0,2.92,2.49,0.\Bq,0,2.92,2.69
 ,0.\Bq,0,2.92,2.89,0.\Bq,0,2.92,3.09,0.\Bq,0,2.92,3.29,0.\Bq,0,2.92,3.
 49,0.\Bq,0,2.92,3.69,0.\Bq,0,2.92,3.89,0.\Bq,0,3.12,-3.91,0.\Bq,0,3.12
 ,-3.71,0.\Bq,0,3.12,-3.51,0.\Bq,0,3.12,-3.31,0.\Bq,0,3.12,-3.11,0.\Bq,
 0,3.12,-2.91,0.\Bq,0,3.12,-2.71,0.\Bq,0,3.12,-2.51,0.\Bq,0,3.12,-2.31,
 0.\Bq,0,3.12,-2.11,0.\Bq,0,3.12,-1.91,0.\Bq,0,3.12,-1.71,0.\Bq,0,3.12,
 -1.51,0.\Bq,0,3.12,-1.31,0.\Bq,0,3.12,-1.11,0.\Bq,0,3.12,-0.91,0.\Bq,0
 ,3.12,-0.71,0.\Bq,0,3.12,-0.51,0.\Bq,0,3.12,-0.31,0.\Bq,0,3.12,-0.11,0
 .\Bq,0,3.12,0.09,0.\Bq,0,3.12,0.29,0.\Bq,0,3.12,0.49,0.\Bq,0,3.12,0.69
 ,0.\Bq,0,3.12,0.89,0.\Bq,0,3.12,1.09,0.\Bq,0,3.12,1.29,0.\Bq,0,3.12,1.
 49,0.\Bq,0,3.12,1.69,0.\Bq,0,3.12,1.89,0.\Bq,0,3.12,2.09,0.\Bq,0,3.12,
 2.29,0.\Bq,0,3.12,2.49,0.\Bq,0,3.12,2.69,0.\Bq,0,3.12,2.89,0.\Bq,0,3.1
 2,3.09,0.\Bq,0,3.12,3.29,0.\Bq,0,3.12,3.49,0.\Bq,0,3.12,3.69,0.\Bq,0,3
 .12,3.89,0.\Bq,0,3.32,-3.91,0.\Bq,0,3.32,-3.71,0.\Bq,0,3.32,-3.51,0.\B
 q,0,3.32,-3.31,0.\Bq,0,3.32,-3.11,0.\Bq,0,3.32,-2.91,0.\Bq,0,3.32,-2.7
 1,0.\Bq,0,3.32,-2.51,0.\Bq,0,3.32,-2.31,0.\Bq,0,3.32,-2.11,0.\Bq,0,3.3
 2,-1.91,0.\Bq,0,3.32,-1.71,0.\Bq,0,3.32,-1.51,0.\Bq,0,3.32,-1.31,0.\Bq
 ,0,3.32,-1.11,0.\Bq,0,3.32,-0.91,0.\Bq,0,3.32,-0.71,0.\Bq,0,3.32,-0.51
 ,0.\Bq,0,3.32,-0.31,0.\Bq,0,3.32,-0.11,0.\Bq,0,3.32,0.09,0.\Bq,0,3.32,
 0.29,0.\Bq,0,3.32,0.49,0.\Bq,0,3.32,0.69,0.\Bq,0,3.32,0.89,0.\Bq,0,3.3
 2,1.09,0.\Bq,0,3.32,1.29,0.\Bq,0,3.32,1.49,0.\Bq,0,3.32,1.69,0.\Bq,0,3
 .32,1.89,0.\Bq,0,3.32,2.09,0.\Bq,0,3.32,2.29,0.\Bq,0,3.32,2.49,0.\Bq,0
 ,3.32,2.69,0.\Bq,0,3.32,2.89,0.\Bq,0,3.32,3.09,0.\Bq,0,3.32,3.29,0.\Bq
 ,0,3.32,3.49,0.\Bq,0,3.32,3.69,0.\Bq,0,3.32,3.89,0.\Bq,0,3.52,-3.91,0.
 \Bq,0,3.52,-3.71,0.\Bq,0,3.52,-3.51,0.\Bq,0,3.52,-3.31,0.\Bq,0,3.52,-3
 .11,0.\Bq,0,3.52,-2.91,0.\Bq,0,3.52,-2.71,0.\Bq,0,3.52,-2.51,0.\Bq,0,3
 .52,-2.31,0.\Bq,0,3.52,-2.11,0.\Bq,0,3.52,-1.91,0.\Bq,0,3.52,-1.71,0.\
 Bq,0,3.52,-1.51,0.\Bq,0,3.52,-1.31,0.\Bq,0,3.52,-1.11,0.\Bq,0,3.52,-0.
 91,0.\Bq,0,3.52,-0.71,0.\Bq,0,3.52,-0.51,0.\Bq,0,3.52,-0.31,0.\Bq,0,3.
 52,-0.11,0.\Bq,0,3.52,0.09,0.\Bq,0,3.52,0.29,0.\Bq,0,3.52,0.49,0.\Bq,0
 ,3.52,0.69,0.\Bq,0,3.52,0.89,0.\Bq,0,3.52,1.09,0.\Bq,0,3.52,1.29,0.\Bq
 ,0,3.52,1.49,0.\Bq,0,3.52,1.69,0.\Bq,0,3.52,1.89,0.\Bq,0,3.52,2.09,0.\
 Bq,0,3.52,2.29,0.\Bq,0,3.52,2.49,0.\Bq,0,3.52,2.69,0.\Bq,0,3.52,2.89,0
 .\Bq,0,3.52,3.09,0.\Bq,0,3.52,3.29,0.\Bq,0,3.52,3.49,0.\Bq,0,3.52,3.69
 ,0.\Bq,0,3.52,3.89,0.\Bq,0,3.72,-3.91,0.\Bq,0,3.72,-3.71,0.\Bq,0,3.72,
 -3.51,0.\Bq,0,3.72,-3.31,0.\Bq,0,3.72,-3.11,0.\Bq,0,3.72,-2.91,0.\Bq,0
 ,3.72,-2.71,0.\Bq,0,3.72,-2.51,0.\Bq,0,3.72,-2.31,0.\Bq,0,3.72,-2.11,0
 .\Bq,0,3.72,-1.91,0.\Bq,0,3.72,-1.71,0.\Bq,0,3.72,-1.51,0.\Bq,0,3.72,-
 1.31,0.\Bq,0,3.72,-1.11,0.\Bq,0,3.72,-0.91,0.\Bq,0,3.72,-0.71,0.\Bq,0,
 3.72,-0.51,0.\Bq,0,3.72,-0.31,0.\Bq,0,3.72,-0.11,0.\Bq,0,3.72,0.09,0.\
 Bq,0,3.72,0.29,0.\Bq,0,3.72,0.49,0.\Bq,0,3.72,0.69,0.\Bq,0,3.72,0.89,0
 .\Bq,0,3.72,1.09,0.\Bq,0,3.72,1.29,0.\Bq,0,3.72,1.49,0.\Bq,0,3.72,1.69
 ,0.\Bq,0,3.72,1.89,0.\Bq,0,3.72,2.09,0.\Bq,0,3.72,2.29,0.\Bq,0,3.72,2.
 49,0.\Bq,0,3.72,2.69,0.\Bq,0,3.72,2.89,0.\Bq,0,3.72,3.09,0.\Bq,0,3.72,
 3.29,0.\Bq,0,3.72,3.49,0.\Bq,0,3.72,3.69,0.\Bq,0,3.72,3.89,0.\Bq,0,3.9
 2,-3.91,0.\Bq,0,3.92,-3.71,0.\Bq,0,3.92,-3.51,0.\Bq,0,3.92,-3.31,0.\Bq
 ,0,3.92,-3.11,0.\Bq,0,3.92,-2.91,0.\Bq,0,3.92,-2.71,0.\Bq,0,3.92,-2.51
 ,0.\Bq,0,3.92,-2.31,0.\Bq,0,3.92,-2.11,0.\Bq,0,3.92,-1.91,0.\Bq,0,3.92
 ,-1.71,0.\Bq,0,3.92,-1.51,0.\Bq,0,3.92,-1.31,0.\Bq,0,3.92,-1.11,0.\Bq,
 0,3.92,-0.91,0.\Bq,0,3.92,-0.71,0.\Bq,0,3.92,-0.51,0.\Bq,0,3.92,-0.31,
 0.\Bq,0,3.92,-0.11,0.\Bq,0,3.92,0.09,0.\Bq,0,3.92,0.29,0.\Bq,0,3.92,0.
 49,0.\Bq,0,3.92,0.69,0.\Bq,0,3.92,0.89,0.\Bq,0,3.92,1.09,0.\Bq,0,3.92,
 1.29,0.\Bq,0,3.92,1.49,0.\Bq,0,3.92,1.69,0.\Bq,0,3.92,1.89,0.\Bq,0,3.9
 2,2.09,0.\Bq,0,3.92,2.29,0.\Bq,0,3.92,2.49,0.\Bq,0,3.92,2.69,0.\Bq,0,3
 .92,2.89,0.\Bq,0,3.92,3.09,0.\Bq,0,3.92,3.29,0.\Bq,0,3.92,3.49,0.\Bq,0
 ,3.92,3.69,0.\Bq,0,3.92,3.89,0.\\Version=ES64L-G16RevB.01\HF=-232.3172
 76\S2=0.\S2-1=0.\S2A=0.\RMSD=8.196e-09\Dipole=0.0000037,-0.0000005,-0.
 0000514\Quadrupole=2.0140941,2.0133352,-4.0274293,-0.0000816,-0.000000
 9,0.0000552\PG=C01 [X(C6H6)]\\@


 A DANDELION FROM A LOVER MEANS MORE THAN AN ORCHID FROM A FRIEND.
 Job cpu time:       0 days  0 hours  3 minutes 15.7 seconds.
 Elapsed time:       0 days  0 hours  0 minutes 32.2 seconds.
 File lengths (MBytes):  RWF=     49 Int=      0 D2E=      0 Chk=      9 Scr=      1
 Normal termination of Gaussian 16 at Thu Mar 16 13:05:47 2023.
